 vasp.6.3.2 27Jun22 (build Sep 20 2022 16:10:27) complex                        
  
 executed on             LinuxIFC date 2024.11.09  00:00:01
 running on   36 total cores
 distrk:  each k-point on   36 cores,    1 groups
 distr:  one band on NCORE=   9 cores,    4 groups


--------------------------------------------------------------------------------------------------------


 INCAR:
   SYSTEM = INCAR-For-BAND
   ISTART = 0
   ICHARG = 11
   ENCUT = 500.0
   ISMEAR = 0
   SIGMA = 0.05
   LREAL = .FALSE.
   PREC = Accurate
   EDIFF = 1E-07
   NELM = 100
   ALGO = Normal
   LASPH = .TRUE
   NCORE = 9
   ISPIN = 1
   LORBIT = 11
   NEDOS = 100
   LMAXMIX = 4
   ISYM = 0
   IBRION = -1
   LWAVE = .FALSE.
   LCHARG = .TRUE.

 POTCAR:    PAW_PBE Zn 06Sep2000                  
 POTCAR:    PAW_PBE In_d 06Sep2000                
 POTCAR:    PAW_PBE S 06Sep2000                   
 POTCAR:    PAW_PBE Zn 06Sep2000                  
   SHA256 =  501fddbd8274dd8e9725d4f3de27861d7f1e553a7e18441bc79fed8f346e7f23 Zn/POTCAR             
   COPYR  = (c) Copyright 06Sep2000 Georg Kresse                                                    
   COPYR  = This file is part of the software VASP. Any use, copying, and all other rights are regul
   COPYR  = If you do not have a valid VASP license, you may not use, copy or distribute this file. 
   VRHFIN =Zn: d10 p2                                                                               
   LEXCH  = PE                                                                                      
   EATOM  =  1748.8345 eV,  128.5357 Ry                                                             
                                                                                                    
   TITEL  = PAW_PBE Zn 06Sep2000                                                                    
   LULTRA =        F    use ultrasoft PP ?                                                          
   IUNSCR =        1    unscreen: 0-lin 1-nonlin 2-no                                               
   RPACOR =    2.000    partial core radius                                                         
   POMASS =   65.390; ZVAL   =   12.000    mass and valenz                                          
   RCORE  =    2.300    outmost cutoff radius                                                       
   RWIGS  =    2.400; RWIGS  =    1.270    wigner-seitz radius (au A)                               
   ENMAX  =  276.723; ENMIN  =  207.542 eV                                                          
   RCLOC  =    1.828    cutoff for local pot                                                        
   LCOR   =        T    correct aug charges                                                         
   LPAW   =        T    paw PP                                                                      
   EAUG   =  575.892                                                                                
   DEXC   =    0.000                                                                                
   RMAX   =    2.347    core radius for proj-oper                                                   
   RAUG   =    1.300    factor for augmentation sphere                                              
   RDEP   =    2.324    radius for radial grids                                                     
   RDEPT  =    1.788    core radius for aug-charge                                                  
                                                                                                    
   Atomic configuration                                                                             
    9 entries                                                                                       
     n  l   j            E        occ.                                                              
     1  0  0.50     -9524.6913   2.0000                                                             
     2  0  0.50     -1158.1882   2.0000                                                             
     2  1  1.50     -1003.8506   6.0000                                                             
     3  0  0.50      -129.2194   2.0000                                                             
     3  1  1.50       -83.3890   6.0000                                                             
     3  2  2.50       -10.1410  10.0000                                                             
     4  0  0.50        -5.9785   2.0000                                                             
     4  1  0.50        -4.0817   0.0000                                                             
     4  3  2.50        -1.3606   0.0000                                                             
   Description                                                                                      
     l       E           TYP  RCUT    TYP  RCUT                                                     
     2    -10.1410010     23  2.300                                                                 
     2    -11.5015836     23  2.300                                                                 
     0     -5.9785163     23  2.300                                                                 
     0      1.1858015     23  2.300                                                                 
     1     -2.7211652     23  2.300                                                                 
     1     13.2444212     23  2.300                                                                 
  local pseudopotential read in
  partial core-charges read in
  partial kinetic energy density read in
  atomic valenz-charges read in
  non local Contribution for L=           2  read in
    real space projection operators read in
  non local Contribution for L=           2  read in
    real space projection operators read in
  non local Contribution for L=           0  read in
    real space projection operators read in
  non local Contribution for L=           0  read in
    real space projection operators read in
  non local Contribution for L=           1  read in
    real space projection operators read in
  non local Contribution for L=           1  read in
    real space projection operators read in
    PAW grid and wavefunctions read in
 
   number of l-projection  operators is LMAX  =           6
   number of lm-projection operators is LMMAX =          18
 
 POTCAR:    PAW_PBE In_d 06Sep2000                
   SHA256 =  bef4eefb233e1f458c7ef2e09e39e7114bb5a6a38c7ac356915527764429c513 In_d/POTCAR           
   COPYR  = (c) Copyright 06Sep2000 Georg Kresse                                                    
   COPYR  = This file is part of the software VASP. Any use, copying, and all other rights are regul
   COPYR  = If you do not have a valid VASP license, you may not use, copy or distribute this file. 
   VRHFIN =In: s2p1                                                                                 
   LEXCH  = PE                                                                                      
   EATOM  =  1576.8302 eV,  115.8937 Ry                                                             
                                                                                                    
   TITEL  = PAW_PBE In_d 06Sep2000                                                                  
   LULTRA =        F    use ultrasoft PP ?                                                          
   IUNSCR =        1    unscreen: 0-lin 1-nonlin 2-no                                               
   RPACOR =    2.200    partial core radius                                                         
   POMASS =  114.820; ZVAL   =   13.000    mass and valenz                                          
   RCORE  =    2.500    outmost cutoff radius                                                       
   RWIGS  =    3.170; RWIGS  =    1.677    wigner-seitz radius (au A)                               
   ENMAX  =  239.211; ENMIN  =  179.409 eV                                                          
   ICORE  =        3    local potential                                                             
   LCOR   =        T    correct aug charges                                                         
   LPAW   =        T    paw PP                                                                      
   EAUG   =  449.704                                                                                
   DEXC   =    0.000                                                                                
   RMAX   =    2.552    core radius for proj-oper                                                   
   RAUG   =    1.300    factor for augmentation sphere                                              
   RDEP   =    2.630    radius for radial grids                                                     
   RDEPT  =    2.033    core radius for aug-charge                                                  
                                                                                                    
   Atomic configuration                                                                             
   12 entries                                                                                       
     n  l   j            E        occ.                                                              
     1  0  0.50    -27747.9169   2.0000                                                             
     2  0  0.50     -4154.4438   2.0000                                                             
     2  1  1.50     -3728.4305   6.0000                                                             
     3  0  0.50      -788.3680   2.0000                                                             
     3  1  1.50      -648.9215   6.0000                                                             
     3  2  2.50      -432.5893  10.0000                                                             
     4  0  0.50      -119.6363   2.0000                                                             
     4  1  1.50       -78.1086   6.0000                                                             
     4  2  2.50       -18.6227  10.0000                                                             
     5  0  0.50        -8.2107   2.0000                                                             
     5  1  0.50        -2.5185   1.0000                                                             
     4  3  2.50        -2.7212   0.0000                                                             
   Description                                                                                      
     l       E           TYP  RCUT    TYP  RCUT                                                     
     2    -18.6226981     23  2.500                                                                 
     2     -1.3605826     23  2.500                                                                 
     0     -8.2107305     23  2.500                                                                 
     0     -6.1485975     23  2.500                                                                 
     1     -2.5184867     23  2.500                                                                 
     1      3.2427302     23  2.500                                                                 
     3     -1.3605826      7  2.500                                                                 
  local pseudopotential read in
  partial core-charges read in
  partial kinetic energy density read in
  atomic valenz-charges read in
  non local Contribution for L=           2  read in
    real space projection operators read in
  non local Contribution for L=           2  read in
    real space projection operators read in
  non local Contribution for L=           0  read in
    real space projection operators read in
  non local Contribution for L=           0  read in
    real space projection operators read in
  non local Contribution for L=           1  read in
    real space projection operators read in
  non local Contribution for L=           1  read in
    real space projection operators read in
    PAW grid and wavefunctions read in
 
   number of l-projection  operators is LMAX  =           6
   number of lm-projection operators is LMMAX =          18
 
 POTCAR:    PAW_PBE S 06Sep2000                   
   SHA256 =  0fc7481fb0695f01bdc6462160264c5c84044ae9ec85a907d398b887a2bc3132 S/POTCAR              
   COPYR  = (c) Copyright 06Sep2000 Georg Kresse                                                    
   COPYR  = This file is part of the software VASP. Any use, copying, and all other rights are regul
   COPYR  = If you do not have a valid VASP license, you may not use, copy or distribute this file. 
   VRHFIN =S : s2p4                                                                                 
   LEXCH  = PE                                                                                      
   EATOM  =   276.8230 eV,   20.3459 Ry                                                             
                                                                                                    
   TITEL  = PAW_PBE S 06Sep2000                                                                     
   LULTRA =        F    use ultrasoft PP ?                                                          
   IUNSCR =        1    unscreen: 0-lin 1-nonlin 2-no                                               
   RPACOR =    1.500    partial core radius                                                         
   POMASS =   32.066; ZVAL   =    6.000    mass and valenz                                          
   RCORE  =    1.900    outmost cutoff radius                                                       
   RWIGS  =    2.200; RWIGS  =    1.164    wigner-seitz radius (au A)                               
   ENMAX  =  258.689; ENMIN  =  194.016 eV                                                          
   ICORE  =        2    local potential                                                             
   LCOR   =        T    correct aug charges                                                         
   LPAW   =        T    paw PP                                                                      
   EAUG   =  335.092                                                                                
   DEXC   =    0.000                                                                                
   RMAX   =    1.942    core radius for proj-oper                                                   
   RAUG   =    1.300    factor for augmentation sphere                                              
   RDEP   =    1.954    radius for radial grids                                                     
   RDEPT  =    1.744    core radius for aug-charge                                                  
                                                                                                    
   Atomic configuration                                                                             
    6 entries                                                                                       
     n  l   j            E        occ.                                                              
     1  0  0.50     -2405.8406   2.0000                                                             
     2  0  0.50      -211.7007   2.0000                                                             
     2  1  1.50      -156.4958   6.0000                                                             
     3  0  0.50       -17.2562   2.0000                                                             
     3  1  0.50        -7.0085   4.0000                                                             
     3  2  1.50        -6.8029   0.0000                                                             
   Description                                                                                      
     l       E           TYP  RCUT    TYP  RCUT                                                     
     0    -17.2561641     23  1.900                                                                 
     0    -15.8743224     23  1.900                                                                 
     1     -7.0085400     23  1.900                                                                 
     1     -2.7779785     23  1.900                                                                 
     2     -6.8029130     23  1.900                                                                 
  local pseudopotential read in
  partial core-charges read in
  partial kinetic energy density read in
  atomic valenz-charges read in
  non local Contribution for L=           0  read in
    real space projection operators read in
  non local Contribution for L=           0  read in
    real space projection operators read in
  non local Contribution for L=           1  read in
    real space projection operators read in
  non local Contribution for L=           1  read in
    real space projection operators read in
    PAW grid and wavefunctions read in
 
   number of l-projection  operators is LMAX  =           4
   number of lm-projection operators is LMMAX =           8
 
  PAW_PBE Zn 06Sep2000                  :
 energy of atom  1       EATOM=-1748.8345
 kinetic energy error for atom=    0.0029 (will be added to EATOM!!)
  PAW_PBE In_d 06Sep2000                :
 energy of atom  2       EATOM=-1576.8302
 kinetic energy error for atom=    0.0036 (will be added to EATOM!!)
  PAW_PBE S 06Sep2000                   :
 energy of atom  3       EATOM= -276.8230
 kinetic energy error for atom=    0.0020 (will be added to EATOM!!)
 
 
 POSCAR: Primitive Cell
  positions in direct lattice
  velocities in cartesian coordinates
 exchange correlation table for  LEXCH =        8
   RHO(1)=    0.500       N(1)  =     2000
   RHO(2)=  100.500       N(2)  =     4000
 


--------------------------------------------------------------------------------------------------------


 ion  position               nearest neighbor table
   1  0.392  0.392  0.392-   4 2.31   4 2.31   4 2.31   6 2.54
   2  0.162  0.162  0.162-   6 2.57   6 2.57   6 2.57   7 2.72   7 2.72   7 2.72
   3  0.937  0.937  0.937-   7 2.45   5 2.49   5 2.49   5 2.49
   4  0.044  0.044  0.044-   1 2.31   1 2.31   1 2.31
   5  0.300  0.300  0.300-   3 2.49   3 2.49   3 2.49
   6  0.461  0.461  0.461-   1 2.54   2 2.57   2 2.57   2 2.57
   7  0.870  0.870  0.870-   3 2.45   2 2.72   2 2.72   2 2.72
 

IMPORTANT INFORMATION: All symmetrisations will be switched off!
NOSYMM: (Re-)initialisation of all symmetry stuff for point group C_1.


----------------------------------------------------------------------------------------

                                     Primitive cell                                     

  volume of cell :     160.5105

  direct lattice vectors                    reciprocal lattice vectors
     1.944688005  1.122766133 12.252165354     0.257110648  0.148442903  0.027206076
    -1.944688067  1.122766151 12.252165346    -0.257110647  0.148442900  0.027206075
    -0.000000014 -2.245532345 12.252165355    -0.000000001 -0.296885803  0.027206075

  length of vectors
    12.456242254 12.456242258 12.456242266     0.298129756  0.298129753  0.298129754

  position of ions in fractional coordinates (direct lattice)
     0.391750106  0.391750104  0.391750092
     0.161781926  0.161781931  0.161781971
     0.937134660  0.937134667  0.937134656
     0.043793497  0.043793498  0.043793499
     0.299593712  0.299593707  0.299593678
     0.460967032  0.460967029  0.460967008
     0.870379067  0.870379064  0.870379095

  ion indices of the primitive-cell ions
   primitive index   ion index
                 1           1
                 2           2
                 3           3
                 4           4
                 5           5
                 6           6
                 7           7

----------------------------------------------------------------------------------------

 
 
 KPOINTS: K-Path Generated by VASPKIT.            

Interpolating k-points between supplied coordinates.

 Line segments in fractional coordinates (reciprocal lattice):
    0.000000  0.000000  0.000000  ...  0.500000  0.500000  0.500000
    0.500000  0.500000  0.500000  ...  0.827965  0.172035  0.500000
    0.500000 -0.172035  0.172035  ...  0.500000  0.000000  0.000000
    0.500000  0.000000  0.000000  ...  0.000000  0.000000  0.000000
    0.000000  0.000000  0.000000  ...  0.336018 -0.336018  0.000000
    0.663982  0.000000  0.336018  ...  0.500000  0.000000  0.500000
    0.500000  0.000000  0.500000  ...  0.000000  0.000000  0.000000

 Generated    20 points on each line segment, for a total of    140 k-points:

 Following reciprocal coordinates:
            Coordinates               Weight
  0.000000  0.000000  0.000000      0.007143
  0.026316  0.026316  0.026316      0.007143
  0.052632  0.052632  0.052632      0.007143
  0.078947  0.078947  0.078947      0.007143
  0.105263  0.105263  0.105263      0.007143
  0.131579  0.131579  0.131579      0.007143
  0.157895  0.157895  0.157895      0.007143
  0.184211  0.184211  0.184211      0.007143
  0.210526  0.210526  0.210526      0.007143
  0.236842  0.236842  0.236842      0.007143
  0.263158  0.263158  0.263158      0.007143
  0.289474  0.289474  0.289474      0.007143
  0.315789  0.315789  0.315789      0.007143
  0.342105  0.342105  0.342105      0.007143
  0.368421  0.368421  0.368421      0.007143
  0.394737  0.394737  0.394737      0.007143
  0.421053  0.421053  0.421053      0.007143
  0.447368  0.447368  0.447368      0.007143
  0.473684  0.473684  0.473684      0.007143
  0.500000  0.500000  0.500000      0.007143
  0.500000  0.500000  0.500000      0.007143
  0.517261  0.482739  0.500000      0.007143
  0.534523  0.465477  0.500000      0.007143
  0.551784  0.448216  0.500000      0.007143
  0.569045  0.430955  0.500000      0.007143
  0.586306  0.413694  0.500000      0.007143
  0.603568  0.396432  0.500000      0.007143
  0.620829  0.379171  0.500000      0.007143
  0.638090  0.361910  0.500000      0.007143
  0.655352  0.344648  0.500000      0.007143
  0.672613  0.327387  0.500000      0.007143
  0.689874  0.310126  0.500000      0.007143
  0.707136  0.292864  0.500000      0.007143
  0.724397  0.275603  0.500000      0.007143
  0.741658  0.258342  0.500000      0.007143
  0.758919  0.241081  0.500000      0.007143
  0.776181  0.223819  0.500000      0.007143
  0.793442  0.206558  0.500000      0.007143
  0.810703  0.189297  0.500000      0.007143
  0.827965  0.172035  0.500000      0.007143
  0.500000 -0.172035  0.172035      0.007143
  0.500000 -0.162981  0.162981      0.007143
  0.500000 -0.153926  0.153926      0.007143
  0.500000 -0.144872  0.144872      0.007143
  0.500000 -0.135817  0.135817      0.007143
  0.500000 -0.126763  0.126763      0.007143
  0.500000 -0.117708  0.117708      0.007143
  0.500000 -0.108654  0.108654      0.007143
  0.500000 -0.099599  0.099599      0.007143
  0.500000 -0.090545  0.090545      0.007143
  0.500000 -0.081490  0.081490      0.007143
  0.500000 -0.072436  0.072436      0.007143
  0.500000 -0.063381  0.063381      0.007143
  0.500000 -0.054327  0.054327      0.007143
  0.500000 -0.045272  0.045272      0.007143
  0.500000 -0.036218  0.036218      0.007143
  0.500000 -0.027163  0.027163      0.007143
  0.500000 -0.018109  0.018109      0.007143
  0.500000 -0.009054  0.009054      0.007143
  0.500000  0.000000 -0.000000      0.007143
  0.500000  0.000000  0.000000      0.007143
  0.473684  0.000000  0.000000      0.007143
  0.447368  0.000000  0.000000      0.007143
  0.421053  0.000000  0.000000      0.007143
  0.394737  0.000000  0.000000      0.007143
  0.368421  0.000000  0.000000      0.007143
  0.342105  0.000000  0.000000      0.007143
  0.315789  0.000000  0.000000      0.007143
  0.289474  0.000000  0.000000      0.007143
  0.263158  0.000000  0.000000      0.007143
  0.236842  0.000000  0.000000      0.007143
  0.210526  0.000000  0.000000      0.007143
  0.184211  0.000000  0.000000      0.007143
  0.157895  0.000000  0.000000      0.007143
  0.131579  0.000000  0.000000      0.007143
  0.105263  0.000000  0.000000      0.007143
  0.078947  0.000000  0.000000      0.007143
  0.052632  0.000000  0.000000      0.007143
  0.026316  0.000000  0.000000      0.007143
  0.000000  0.000000  0.000000      0.007143
  0.000000  0.000000  0.000000      0.007143
  0.017685 -0.017685  0.000000      0.007143
  0.035370 -0.035370  0.000000      0.007143
  0.053055 -0.053055  0.000000      0.007143
  0.070741 -0.070741  0.000000      0.007143
  0.088426 -0.088426  0.000000      0.007143
  0.106111 -0.106111  0.000000      0.007143
  0.123796 -0.123796  0.000000      0.007143
  0.141481 -0.141481  0.000000      0.007143
  0.159166 -0.159166  0.000000      0.007143
  0.176851 -0.176851  0.000000      0.007143
  0.194537 -0.194537  0.000000      0.007143
  0.212222 -0.212222  0.000000      0.007143
  0.229907 -0.229907  0.000000      0.007143
  0.247592 -0.247592  0.000000      0.007143
  0.265277 -0.265277  0.000000      0.007143
  0.282962 -0.282962  0.000000      0.007143
  0.300647 -0.300647  0.000000      0.007143
  0.318333 -0.318333  0.000000      0.007143
  0.336018 -0.336018  0.000000      0.007143
  0.663982  0.000000  0.336018      0.007143
  0.655352  0.000000  0.344648      0.007143
  0.646721  0.000000  0.353279      0.007143
  0.638090  0.000000  0.361910      0.007143
  0.629460  0.000000  0.370540      0.007143
  0.620829  0.000000  0.379171      0.007143
  0.612198  0.000000  0.387802      0.007143
  0.603568  0.000000  0.396432      0.007143
  0.594937  0.000000  0.405063      0.007143
  0.586306  0.000000  0.413694      0.007143
  0.577676  0.000000  0.422324      0.007143
  0.569045  0.000000  0.430955      0.007143
  0.560415  0.000000  0.439585      0.007143
  0.551784  0.000000  0.448216      0.007143
  0.543153  0.000000  0.456847      0.007143
  0.534523  0.000000  0.465477      0.007143
  0.525892  0.000000  0.474108      0.007143
  0.517261  0.000000  0.482739      0.007143
  0.508631  0.000000  0.491369      0.007143
  0.500000  0.000000  0.500000      0.007143
  0.500000  0.000000  0.500000      0.007143
  0.473684  0.000000  0.473684      0.007143
  0.447368  0.000000  0.447368      0.007143
  0.421053  0.000000  0.421053      0.007143
  0.394737  0.000000  0.394737      0.007143
  0.368421  0.000000  0.368421      0.007143
  0.342105  0.000000  0.342105      0.007143
  0.315789  0.000000  0.315789      0.007143
  0.289474  0.000000  0.289474      0.007143
  0.263158  0.000000  0.263158      0.007143
  0.236842  0.000000  0.236842      0.007143
  0.210526  0.000000  0.210526      0.007143
  0.184211  0.000000  0.184211      0.007143
  0.157895  0.000000  0.157895      0.007143
  0.131579  0.000000  0.131579      0.007143
  0.105263  0.000000  0.105263      0.007143
  0.078947  0.000000  0.078947      0.007143
  0.052632  0.000000  0.052632      0.007143
  0.026316  0.000000  0.026316      0.007143
  0.000000  0.000000  0.000000      0.007143

 Following cartesian coordinates:
            Coordinates               Weight
  0.000000  0.000000  0.000000      0.007143
 -0.000000  0.000000  0.002148      0.007143
 -0.000000  0.000000  0.004296      0.007143
 -0.000000  0.000000  0.006444      0.007143
 -0.000000  0.000000  0.008591      0.007143
 -0.000000  0.000000  0.010739      0.007143
 -0.000000  0.000000  0.012887      0.007143
 -0.000000  0.000000  0.015035      0.007143
 -0.000000  0.000000  0.017183      0.007143
 -0.000000  0.000000  0.019331      0.007143
 -0.000000  0.000000  0.021478      0.007143
 -0.000000  0.000000  0.023626      0.007143
 -0.000000  0.000000  0.025774      0.007143
 -0.000000  0.000000  0.027922      0.007143
 -0.000000  0.000000  0.030070      0.007143
 -0.000000  0.000000  0.032218      0.007143
 -0.000000  0.000000  0.034366      0.007143
 -0.000000  0.000000  0.036513      0.007143
 -0.000000  0.000000  0.038661      0.007143
 -0.000000  0.000000  0.040809      0.007143
 -0.000000  0.000000  0.040809      0.007143
  0.008876  0.000000  0.040809      0.007143
  0.017752  0.000000  0.040809      0.007143
  0.026628  0.000000  0.040809      0.007143
  0.035505  0.000000  0.040809      0.007143
  0.044381  0.000000  0.040809      0.007143
  0.053257  0.000000  0.040809      0.007143
  0.062133  0.000000  0.040809      0.007143
  0.071009  0.000000  0.040809      0.007143
  0.079885  0.000000  0.040809      0.007143
  0.088761  0.000000  0.040809      0.007143
  0.097637  0.000000  0.040809      0.007143
  0.106514  0.000000  0.040809      0.007143
  0.115390  0.000000  0.040809      0.007143
  0.124266  0.000000  0.040809      0.007143
  0.133142  0.000000  0.040809      0.007143
  0.142018  0.000000  0.040809      0.007143
  0.150894  0.000000  0.040809      0.007143
  0.159770  0.000000  0.040809      0.007143
  0.168646  0.000000  0.040809      0.007143
  0.172787 -0.002391  0.013603      0.007143
  0.170459  0.001641  0.013603      0.007143
  0.168131  0.005674  0.013603      0.007143
  0.165803  0.009706  0.013603      0.007143
  0.163475  0.013738  0.013603      0.007143
  0.161147  0.017770  0.013603      0.007143
  0.158819  0.021803  0.013603      0.007143
  0.156491  0.025835  0.013603      0.007143
  0.154163  0.029867  0.013603      0.007143
  0.151835  0.033899  0.013603      0.007143
  0.149507  0.037931  0.013603      0.007143
  0.147179  0.041964  0.013603      0.007143
  0.144851  0.045996  0.013603      0.007143
  0.142523  0.050028  0.013603      0.007143
  0.140195  0.054060  0.013603      0.007143
  0.137867  0.058093  0.013603      0.007143
  0.135539  0.062125  0.013603      0.007143
  0.133211  0.066157  0.013603      0.007143
  0.130883  0.070189  0.013603      0.007143
  0.128555  0.074221  0.013603      0.007143
  0.128555  0.074221  0.013603      0.007143
  0.121789  0.070315  0.012887      0.007143
  0.115023  0.066409  0.012171      0.007143
  0.108257  0.062502  0.011455      0.007143
  0.101491  0.058596  0.010739      0.007143
  0.094725  0.054689  0.010023      0.007143
  0.087959  0.050783  0.009307      0.007143
  0.081193  0.046877  0.008591      0.007143
  0.074427  0.042970  0.007875      0.007143
  0.067661  0.039064  0.007159      0.007143
  0.060895  0.035158  0.006444      0.007143
  0.054129  0.031251  0.005728      0.007143
  0.047362  0.027345  0.005012      0.007143
  0.040596  0.023438  0.004296      0.007143
  0.033830  0.019532  0.003580      0.007143
  0.027064  0.015626  0.002864      0.007143
  0.020298  0.011719  0.002148      0.007143
  0.013532  0.007813  0.001432      0.007143
  0.006766  0.003906  0.000716      0.007143
  0.000000  0.000000  0.000000      0.007143
  0.000000  0.000000  0.000000      0.007143
  0.009094  0.000000  0.000000      0.007143
  0.018188  0.000000  0.000000      0.007143
  0.027282  0.000000  0.000000      0.007143
  0.036376  0.000000  0.000000      0.007143
  0.045470  0.000000  0.000000      0.007143
  0.054564  0.000000  0.000000      0.007143
  0.063659  0.000000  0.000000      0.007143
  0.072753  0.000000  0.000000      0.007143
  0.081847  0.000000  0.000000      0.007143
  0.090941  0.000000  0.000000      0.007143
  0.100035  0.000000  0.000000      0.007143
  0.109129  0.000000  0.000000      0.007143
  0.118223  0.000000  0.000000      0.007143
  0.127317  0.000000  0.000000      0.007143
  0.136411  0.000000  0.000000      0.007143
  0.145505  0.000000  0.000000      0.007143
  0.154599  0.000000  0.000000      0.007143
  0.163693  0.000000  0.000000      0.007143
  0.172787  0.000000  0.000000      0.007143
  0.170717 -0.001195  0.027206      0.007143
  0.168498 -0.005039  0.027206      0.007143
  0.166279 -0.008882  0.027206      0.007143
  0.164060 -0.012726  0.027206      0.007143
  0.161841 -0.016569  0.027206      0.007143
  0.159622 -0.020413  0.027206      0.007143
  0.157403 -0.024256  0.027206      0.007143
  0.155184 -0.028100  0.027206      0.007143
  0.152965 -0.031943  0.027206      0.007143
  0.150746 -0.035787  0.027206      0.007143
  0.148527 -0.039630  0.027206      0.007143
  0.146308 -0.043474  0.027206      0.007143
  0.144089 -0.047317  0.027206      0.007143
  0.141870 -0.051161  0.027206      0.007143
  0.139650 -0.055004  0.027206      0.007143
  0.137431 -0.058848  0.027206      0.007143
  0.135212 -0.062691  0.027206      0.007143
  0.132993 -0.066534  0.027206      0.007143
  0.130774 -0.070378  0.027206      0.007143
  0.128555 -0.074221  0.027206      0.007143
  0.128555 -0.074221  0.027206      0.007143
  0.121789 -0.070315  0.025774      0.007143
  0.115023 -0.066409  0.024342      0.007143
  0.108257 -0.062502  0.022910      0.007143
  0.101491 -0.058596  0.021478      0.007143
  0.094725 -0.054689  0.020047      0.007143
  0.087959 -0.050783  0.018615      0.007143
  0.081193 -0.046877  0.017183      0.007143
  0.074427 -0.042970  0.015751      0.007143
  0.067661 -0.039064  0.014319      0.007143
  0.060895 -0.035158  0.012887      0.007143
  0.054129 -0.031251  0.011455      0.007143
  0.047362 -0.027345  0.010023      0.007143
  0.040596 -0.023438  0.008591      0.007143
  0.033830 -0.019532  0.007159      0.007143
  0.027064 -0.015626  0.005728      0.007143
  0.020298 -0.011719  0.004296      0.007143
  0.013532 -0.007813  0.002864      0.007143
  0.006766 -0.003906  0.001432      0.007143
  0.000000 -0.000000  0.000000      0.007143
 


--------------------------------------------------------------------------------------------------------




 Dimension of arrays:
   k-points           NKPTS =    140   k-points in BZ     NKDIM =    140   number of bands    NBANDS=     40
   number of dos      NEDOS =    100   number of ions     NIONS =      7
   non local maximal  LDIM  =      6   non local SUM 2l+1 LMDIM =     18
   total plane-waves  NPLWV = 884736
   max r-space proj   IRMAX =      1   max aug-charges    IRDMAX= 238260
   dimension x,y,z NGX =    96 NGY =   96 NGZ =   96
   dimension x,y,z NGXF=   192 NGYF=  192 NGZF=  192
   support grid    NGXF=   192 NGYF=  192 NGZF=  192
   ions per type =               1   2   4
   NGX,Y,Z   is equivalent  to a cutoff of  12.81, 12.81, 12.81 a.u.
   NGXF,Y,Z  is equivalent  to a cutoff of  25.63, 25.63, 25.63 a.u.

 SYSTEM =  INCAR-For-BAND                          
 POSCAR =  Primitive Cell                          

 Startparameter for this run:
   NWRITE =      2    write-flag & timer
   PREC   = accura    normal or accurate (medium, high low for compatibility)
   ISTART =      0    job   : 0-new  1-cont  2-samecut
   ICHARG =     11    charge: 1-file 2-atom 10-const
   ISPIN  =      1    spin polarized calculation?
   LNONCOLLINEAR =      F non collinear calculations
   LSORBIT =      F    spin-orbit coupling
   INIWAV =      1    electr: 0-lowe 1-rand  2-diag
   LASPH  =      T    aspherical Exc in radial PAW
 Electronic Relaxation 1
   ENCUT  =  500.0 eV  36.75 Ry    6.06 a.u.  22.71 22.71 22.71*2*pi/ulx,y,z
   ENINI  =  500.0     initial cutoff
   ENAUG  =  575.9 eV  augmentation charge cutoff
   NELM   =    100;   NELMIN=  2; NELMDL= -5     # of ELM steps 
   EDIFF  = 0.1E-06   stopping-criterion for ELM
   LREAL  =      F    real-space projection
   NLSPLINE    = F    spline interpolate recip. space projectors
   LCOMPAT=      F    compatible to vasp.4.4
   GGA_COMPAT  = T    GGA compatible to vasp.4.4-vasp.4.6
   LMAXPAW     = -100 max onsite density
   LMAXMIX     =    4 max onsite mixed and CHGCAR
   VOSKOWN=      0    Vosko Wilk Nusair interpolation
   ROPT   =    0.00000   0.00000   0.00000
 Ionic relaxation
   EDIFFG = 0.1E-05   stopping-criterion for IOM
   NSW    =      0    number of steps for IOM
   NBLOCK =      1;   KBLOCK =      1    inner block; outer block 
   IBRION =     -1    ionic relax: 0-MD 1-quasi-New 2-CG
   NFREE  =      0    steps in history (QN), initial steepest desc. (CG)
   ISIF   =      2    stress and relaxation
   IWAVPR =     10    prediction:  0-non 1-charg 2-wave 3-comb
   ISYM   =      0    0-nonsym 1-usesym 2-fastsym
   LCORR  =      T    Harris-Foulkes like correction to forces

   POTIM  = 0.5000    time-step for ionic-motion
   TEIN   =    0.0    initial temperature
   TEBEG  =    0.0;   TEEND  =   0.0 temperature during run
   SMASS  =  -3.00    Nose mass-parameter (am)
   estimated Nose-frequenzy (Omega)   =  0.10E-29 period in steps = 0.13E+47 mass=  -0.355E-26a.u.
   SCALEE = 1.0000    scale energy and forces
   NPACO  =    256;   APACO  = 10.0  distance and # of slots for P.C.
   PSTRESS=    0.0 pullay stress

  Mass of Ions in am
   POMASS =  65.39114.82 32.07
  Ionic Valenz
   ZVAL   =  12.00 13.00  6.00
  Atomic Wigner-Seitz radii
   RWIGS  =  -1.00 -1.00 -1.00
  virtual crystal weights 
   VCA    =   1.00  1.00  1.00
   NELECT =      62.0000    total number of electrons
   NUPDOWN=      -1.0000    fix difference up-down

 DOS related values:
   EMIN   =  10.00;   EMAX   =-10.00  energy-range for DOS
   EFERMI =   0.00
   ISMEAR =     0;   SIGMA  =   0.05  broadening in eV -4-tet -1-fermi 0-gaus

 Electronic relaxation 2 (details)
   IALGO  =     38    algorithm
   LDIAG  =      T    sub-space diagonalisation (order eigenvalues)
   LSUBROT=      F    optimize rotation matrix (better conditioning)
   TURBO    =      0    0=normal 1=particle mesh
   IRESTART =      0    0=no restart 2=restart with 2 vectors
   NREBOOT  =      0    no. of reboots
   NMIN     =      0    reboot dimension
   EREF     =   0.00    reference energy to select bands
   IMIX   =      4    mixing-type and parameters
     AMIX     =   0.40;   BMIX     =  1.00
     AMIX_MAG =   1.60;   BMIX_MAG =  1.00
     AMIN     =   0.10
     WC   =   100.;   INIMIX=   1;  MIXPRE=   1;  MAXMIX= -45

 Intra band minimization:
   WEIMIN = 0.0000     energy-eigenvalue tresh-hold
   EBREAK =  0.63E-09  absolut break condition
   DEPER  =   0.30     relativ break condition  

   TIME   =   0.40     timestep for ELM

  volume/ion in A,a.u.               =      22.93       154.74
  Fermi-wavevector in a.u.,A,eV,Ry     =   1.192260  2.253045 19.340460  1.421484
  Thomas-Fermi vector in A             =   2.328302
 
 Write flags
   LWAVE        =      F    write WAVECAR
   LDOWNSAMPLE  =      F    k-point downsampling of WAVECAR
   LCHARG       =      T    write CHGCAR
   LVTOT        =      F    write LOCPOT, total local potential
   LVHAR        =      F    write LOCPOT, Hartree potential only
   LELF         =      F    write electronic localiz. function (ELF)
   LORBIT       =     11    0 simple, 1 ext, 2 COOP (PROOUT), +10 PAW based schemes


 Dipole corrections
   LMONO  =      F    monopole corrections only (constant potential shift)
   LDIPOL =      F    correct potential (dipole corrections)
   IDIPOL =      0    1-x, 2-y, 3-z, 4-all directions 
   EPSILON=  1.0000000 bulk dielectric constant

 Exchange correlation treatment:
   GGA     =    --    GGA type
   LEXCH   =     8    internal setting for exchange type
   LIBXC   =     F    Libxc                    
   VOSKOWN =     0    Vosko Wilk Nusair interpolation
   LHFCALC =     F    Hartree Fock is set to
   LHFONE  =     F    Hartree Fock one center treatment
   AEXX    =    0.0000 exact exchange contribution

 Linear response parameters
   LEPSILON=     F    determine dielectric tensor
   LRPA    =     F    only Hartree local field effects (RPA)
   LNABLA  =     F    use nabla operator in PAW spheres
   LVEL    =     F    velocity operator in full k-point grid
   CSHIFT  =0.1000    complex shift for real part using Kramers Kronig
   OMEGAMAX=  -1.0    maximum frequency
   DEG_THRESHOLD= 0.2000000E-02 threshold for treating states as degnerate
   RTIME   =   -0.100 relaxation time in fs
  (WPLASMAI=    0.000 imaginary part of plasma frequency in eV, 0.658/RTIME)
   DFIELD  = 0.0000000 0.0000000 0.0000000 field for delta impulse in time
 
  Optional k-point grid parameters
   LKPOINTS_OPT  =     F    use optional k-point grid
   KPOINTS_OPT_MODE=     1    mode for optional k-point grid
 
 Orbital magnetization related:
   ORBITALMAG=     F  switch on orbital magnetization
   LCHIMAG   =     F  perturbation theory with respect to B field
   DQ        =  0.001000  dq finite difference perturbation B field
   LLRAUG    =     F  two centre corrections for induced B field



--------------------------------------------------------------------------------------------------------


 Static calculation
 charge density and potential remain constant during run
 non-spin polarized calculation
 Variant of blocked Davidson
 Davidson routine will perform the subspace rotation
 perform sub-space diagonalisation
    after iterative eigenvector-optimisation
 no mixing
 using additional bands            9
 reciprocal scheme for non local part
 use partial core corrections
 calculate Harris-corrections to forces 
   (improved forces if not selfconsistent)
 use gradient corrections 
 WARNING: stress and forces are not correct
  (second derivative of E(xc) not defined)
 use of overlap-Matrix (Vanderbilt PP)
 Gauss-broadening in eV      SIGMA  =   0.05


--------------------------------------------------------------------------------------------------------


  energy-cutoff  :      500.00
  volume of cell :      160.51
      direct lattice vectors                 reciprocal lattice vectors
     1.944688005  1.122766133 12.252165354     0.257110648  0.148442903  0.027206076
    -1.944688067  1.122766151 12.252165346    -0.257110647  0.148442900  0.027206075
    -0.000000014 -2.245532345 12.252165355    -0.000000001 -0.296885803  0.027206075

  length of vectors
    12.456242254 12.456242258 12.456242266     0.298129756  0.298129753  0.298129754


 
 k-points in units of 2pi/SCALE and weight: K-Path Generated by VASPKIT.            
   0.00000000  0.00000000  0.00000000       0.007
  -0.00000000  0.00000000  0.00214785       0.007
  -0.00000000  0.00000000  0.00429570       0.007
  -0.00000000  0.00000000  0.00644354       0.007
  -0.00000000  0.00000000  0.00859139       0.007
  -0.00000000  0.00000000  0.01073924       0.007
  -0.00000000  0.00000000  0.01288709       0.007
  -0.00000000  0.00000000  0.01503494       0.007
  -0.00000000  0.00000000  0.01718278       0.007
  -0.00000000  0.00000000  0.01933063       0.007
  -0.00000000  0.00000000  0.02147848       0.007
  -0.00000000  0.00000000  0.02362633       0.007
  -0.00000000  0.00000000  0.02577418       0.007
  -0.00000000  0.00000000  0.02792202       0.007
  -0.00000000  0.00000000  0.03006987       0.007
  -0.00000000  0.00000000  0.03221772       0.007
  -0.00000000  0.00000000  0.03436557       0.007
  -0.00000000  0.00000000  0.03651342       0.007
  -0.00000000  0.00000000  0.03866126       0.007
  -0.00000000  0.00000000  0.04080911       0.007
  -0.00000000  0.00000000  0.04080911       0.007
   0.00887613  0.00000000  0.04080911       0.007
   0.01775225  0.00000000  0.04080911       0.007
   0.02662838  0.00000000  0.04080911       0.007
   0.03550451  0.00000000  0.04080911       0.007
   0.04438064  0.00000000  0.04080911       0.007
   0.05325677  0.00000000  0.04080911       0.007
   0.06213289  0.00000000  0.04080911       0.007
   0.07100902  0.00000000  0.04080911       0.007
   0.07988515  0.00000000  0.04080911       0.007
   0.08876128  0.00000000  0.04080911       0.007
   0.09763740  0.00000000  0.04080911       0.007
   0.10651353  0.00000000  0.04080911       0.007
   0.11538966  0.00000000  0.04080911       0.007
   0.12426579  0.00000000  0.04080911       0.007
   0.13314191  0.00000000  0.04080911       0.007
   0.14201804  0.00000000  0.04080911       0.007
   0.15089417  0.00000000  0.04080911       0.007
   0.15977030  0.00000000  0.04080911       0.007
   0.16864642  0.00000000  0.04080911       0.007
   0.17278744 -0.00239081  0.01360304       0.007
   0.17045943  0.00164141  0.01360304       0.007
   0.16813142  0.00567363  0.01360304       0.007
   0.16580342  0.00970586  0.01360304       0.007
   0.16347541  0.01373808  0.01360304       0.007
   0.16114741  0.01777031  0.01360304       0.007
   0.15881940  0.02180253  0.01360304       0.007
   0.15649139  0.02583476  0.01360304       0.007
   0.15416339  0.02986698  0.01360304       0.007
   0.15183538  0.03389921  0.01360304       0.007
   0.14950738  0.03793143  0.01360304       0.007
   0.14717937  0.04196366  0.01360304       0.007
   0.14485137  0.04599588  0.01360304       0.007
   0.14252336  0.05002810  0.01360304       0.007
   0.14019535  0.05406033  0.01360304       0.007
   0.13786735  0.05809255  0.01360304       0.007
   0.13553934  0.06212478  0.01360304       0.007
   0.13321134  0.06615700  0.01360304       0.007
   0.13088333  0.07018923  0.01360304       0.007
   0.12855532  0.07422145  0.01360304       0.007
   0.12855532  0.07422145  0.01360304       0.007
   0.12178925  0.07031506  0.01288709       0.007
   0.11502318  0.06640867  0.01217114       0.007
   0.10825711  0.06250227  0.01145519       0.007
   0.10149105  0.05859588  0.01073924       0.007
   0.09472498  0.05468949  0.01002329       0.007
   0.08795891  0.05078310  0.00930734       0.007
   0.08119284  0.04687671  0.00859139       0.007
   0.07442677  0.04297031  0.00787544       0.007
   0.06766070  0.03906392  0.00715949       0.007
   0.06089463  0.03515753  0.00644354       0.007
   0.05412856  0.03125114  0.00572759       0.007
   0.04736249  0.02734475  0.00501165       0.007
   0.04059642  0.02343835  0.00429570       0.007
   0.03383035  0.01953196  0.00357975       0.007
   0.02706428  0.01562557  0.00286380       0.007
   0.02029821  0.01171918  0.00214785       0.007
   0.01353214  0.00781278  0.00143190       0.007
   0.00676607  0.00390639  0.00071595       0.007
   0.00000000  0.00000000  0.00000000       0.007
   0.00000000  0.00000000  0.00000000       0.007
   0.00909408  0.00000000  0.00000000       0.007
   0.01818815  0.00000000  0.00000000       0.007
   0.02728223  0.00000000  0.00000000       0.007
   0.03637630  0.00000000  0.00000000       0.007
   0.04547038  0.00000000  0.00000000       0.007
   0.05456445  0.00000000  0.00000000       0.007
   0.06365853  0.00000000  0.00000000       0.007
   0.07275260  0.00000000  0.00000000       0.007
   0.08184668  0.00000000  0.00000000       0.007
   0.09094076  0.00000000  0.00000000       0.007
   0.10003483  0.00000000  0.00000000       0.007
   0.10912891  0.00000000  0.00000000       0.007
   0.11822298  0.00000000  0.00000000       0.007
   0.12731706  0.00000000  0.00000000       0.007
   0.13641113  0.00000000  0.00000000       0.007
   0.14550521  0.00000000  0.00000000       0.007
   0.15459928  0.00000000  0.00000000       0.007
   0.16369336  0.00000000  0.00000000       0.007
   0.17278744  0.00000000  0.00000000       0.007
   0.17071693 -0.00119541  0.02720608       0.007
   0.16849790 -0.00503888  0.02720608       0.007
   0.16627887 -0.00888236  0.02720608       0.007
   0.16405983 -0.01272583  0.02720608       0.007
   0.16184080 -0.01656931  0.02720608       0.007
   0.15962177 -0.02041279  0.02720608       0.007
   0.15740274 -0.02425626  0.02720608       0.007
   0.15518371 -0.02809974  0.02720608       0.007
   0.15296467 -0.03194321  0.02720608       0.007
   0.15074564 -0.03578669  0.02720608       0.007
   0.14852661 -0.03963017  0.02720608       0.007
   0.14630758 -0.04347364  0.02720608       0.007
   0.14408855 -0.04731712  0.02720608       0.007
   0.14186951 -0.05116059  0.02720608       0.007
   0.13965048 -0.05500407  0.02720608       0.007
   0.13743145 -0.05884755  0.02720608       0.007
   0.13521242 -0.06269102  0.02720608       0.007
   0.13299339 -0.06653450  0.02720608       0.007
   0.13077436 -0.07037797  0.02720608       0.007
   0.12855532 -0.07422145  0.02720608       0.007
   0.12855532 -0.07422145  0.02720608       0.007
   0.12178925 -0.07031506  0.02577418       0.007
   0.11502318 -0.06640867  0.02434228       0.007
   0.10825711 -0.06250227  0.02291038       0.007
   0.10149104 -0.05859588  0.02147848       0.007
   0.09472498 -0.05468949  0.02004658       0.007
   0.08795891 -0.05078310  0.01861468       0.007
   0.08119284 -0.04687671  0.01718278       0.007
   0.07442677 -0.04297031  0.01575089       0.007
   0.06766070 -0.03906392  0.01431899       0.007
   0.06089463 -0.03515753  0.01288709       0.007
   0.05412856 -0.03125114  0.01145519       0.007
   0.04736249 -0.02734474  0.01002329       0.007
   0.04059642 -0.02343835  0.00859139       0.007
   0.03383035 -0.01953196  0.00715949       0.007
   0.02706428 -0.01562557  0.00572759       0.007
   0.02029821 -0.01171918  0.00429570       0.007
   0.01353214 -0.00781278  0.00286380       0.007
   0.00676607 -0.00390639  0.00143190       0.007
   0.00000000 -0.00000000  0.00000000       0.007
 
 k-points in reciprocal lattice and weights: K-Path Generated by VASPKIT.            
   0.00000000  0.00000000  0.00000000       0.007
   0.02631579  0.02631579  0.02631579       0.007
   0.05263158  0.05263158  0.05263158       0.007
   0.07894737  0.07894737  0.07894737       0.007
   0.10526316  0.10526316  0.10526316       0.007
   0.13157895  0.13157895  0.13157895       0.007
   0.15789474  0.15789474  0.15789474       0.007
   0.18421053  0.18421053  0.18421053       0.007
   0.21052632  0.21052632  0.21052632       0.007
   0.23684211  0.23684211  0.23684211       0.007
   0.26315789  0.26315789  0.26315789       0.007
   0.28947368  0.28947368  0.28947368       0.007
   0.31578947  0.31578947  0.31578947       0.007
   0.34210526  0.34210526  0.34210526       0.007
   0.36842105  0.36842105  0.36842105       0.007
   0.39473684  0.39473684  0.39473684       0.007
   0.42105263  0.42105263  0.42105263       0.007
   0.44736842  0.44736842  0.44736842       0.007
   0.47368421  0.47368421  0.47368421       0.007
   0.50000000  0.50000000  0.50000000       0.007
   0.50000000  0.50000000  0.50000000       0.007
   0.51726130  0.48273870  0.50000000       0.007
   0.53452260  0.46547740  0.50000000       0.007
   0.55178390  0.44821610  0.50000000       0.007
   0.56904520  0.43095480  0.50000000       0.007
   0.58630649  0.41369351  0.50000000       0.007
   0.60356779  0.39643221  0.50000000       0.007
   0.62082909  0.37917091  0.50000000       0.007
   0.63809039  0.36190961  0.50000000       0.007
   0.65535169  0.34464831  0.50000000       0.007
   0.67261299  0.32738701  0.50000000       0.007
   0.68987429  0.31012571  0.50000000       0.007
   0.70713559  0.29286441  0.50000000       0.007
   0.72439689  0.27560311  0.50000000       0.007
   0.74165819  0.25834181  0.50000000       0.007
   0.75891948  0.24108052  0.50000000       0.007
   0.77618078  0.22381922  0.50000000       0.007
   0.79344208  0.20655792  0.50000000       0.007
   0.81070338  0.18929662  0.50000000       0.007
   0.82796468  0.17203532  0.50000000       0.007
   0.50000000 -0.17203532  0.17203532       0.007
   0.50000000 -0.16298083  0.16298083       0.007
   0.50000000 -0.15392634  0.15392634       0.007
   0.50000000 -0.14487185  0.14487185       0.007
   0.50000000 -0.13581736  0.13581736       0.007
   0.50000000 -0.12676287  0.12676287       0.007
   0.50000000 -0.11770838  0.11770838       0.007
   0.50000000 -0.10865389  0.10865389       0.007
   0.50000000 -0.09959940  0.09959940       0.007
   0.50000000 -0.09054490  0.09054490       0.007
   0.50000000 -0.08149041  0.08149041       0.007
   0.50000000 -0.07243592  0.07243592       0.007
   0.50000000 -0.06338143  0.06338143       0.007
   0.50000000 -0.05432694  0.05432694       0.007
   0.50000000 -0.04527245  0.04527245       0.007
   0.50000000 -0.03621796  0.03621796       0.007
   0.50000000 -0.02716347  0.02716347       0.007
   0.50000000 -0.01810898  0.01810898       0.007
   0.50000000 -0.00905449  0.00905449       0.007
   0.50000000  0.00000000 -0.00000000       0.007
   0.50000000  0.00000000  0.00000000       0.007
   0.47368421  0.00000000  0.00000000       0.007
   0.44736842  0.00000000  0.00000000       0.007
   0.42105263  0.00000000  0.00000000       0.007
   0.39473684  0.00000000  0.00000000       0.007
   0.36842105  0.00000000  0.00000000       0.007
   0.34210526  0.00000000  0.00000000       0.007
   0.31578947  0.00000000  0.00000000       0.007
   0.28947368  0.00000000  0.00000000       0.007
   0.26315789  0.00000000  0.00000000       0.007
   0.23684211  0.00000000  0.00000000       0.007
   0.21052632  0.00000000  0.00000000       0.007
   0.18421053  0.00000000  0.00000000       0.007
   0.15789474  0.00000000  0.00000000       0.007
   0.13157895  0.00000000  0.00000000       0.007
   0.10526316  0.00000000  0.00000000       0.007
   0.07894737  0.00000000  0.00000000       0.007
   0.05263158  0.00000000  0.00000000       0.007
   0.02631579  0.00000000  0.00000000       0.007
   0.00000000  0.00000000  0.00000000       0.007
   0.00000000  0.00000000  0.00000000       0.007
   0.01768514 -0.01768514  0.00000000       0.007
   0.03537028 -0.03537028  0.00000000       0.007
   0.05305542 -0.05305542  0.00000000       0.007
   0.07074056 -0.07074056  0.00000000       0.007
   0.08842570 -0.08842570  0.00000000       0.007
   0.10611084 -0.10611084  0.00000000       0.007
   0.12379598 -0.12379598  0.00000000       0.007
   0.14148112 -0.14148112  0.00000000       0.007
   0.15916626 -0.15916626  0.00000000       0.007
   0.17685140 -0.17685140  0.00000000       0.007
   0.19453654 -0.19453654  0.00000000       0.007
   0.21222168 -0.21222168  0.00000000       0.007
   0.22990682 -0.22990682  0.00000000       0.007
   0.24759196 -0.24759196  0.00000000       0.007
   0.26527710 -0.26527710  0.00000000       0.007
   0.28296224 -0.28296224  0.00000000       0.007
   0.30064738 -0.30064738  0.00000000       0.007
   0.31833252 -0.31833252  0.00000000       0.007
   0.33601766 -0.33601766  0.00000000       0.007
   0.66398234  0.00000000  0.33601766       0.007
   0.65535169  0.00000000  0.34464831       0.007
   0.64672104  0.00000000  0.35327896       0.007
   0.63809039  0.00000000  0.36190961       0.007
   0.62945974  0.00000000  0.37054026       0.007
   0.62082909  0.00000000  0.37917091       0.007
   0.61219844  0.00000000  0.38780156       0.007
   0.60356779  0.00000000  0.39643221       0.007
   0.59493714  0.00000000  0.40506286       0.007
   0.58630649  0.00000000  0.41369351       0.007
   0.57767585  0.00000000  0.42232415       0.007
   0.56904520  0.00000000  0.43095480       0.007
   0.56041455  0.00000000  0.43958545       0.007
   0.55178390  0.00000000  0.44821610       0.007
   0.54315325  0.00000000  0.45684675       0.007
   0.53452260  0.00000000  0.46547740       0.007
   0.52589195  0.00000000  0.47410805       0.007
   0.51726130  0.00000000  0.48273870       0.007
   0.50863065  0.00000000  0.49136935       0.007
   0.50000000  0.00000000  0.50000000       0.007
   0.50000000  0.00000000  0.50000000       0.007
   0.47368421  0.00000000  0.47368421       0.007
   0.44736842  0.00000000  0.44736842       0.007
   0.42105263  0.00000000  0.42105263       0.007
   0.39473684  0.00000000  0.39473684       0.007
   0.36842105  0.00000000  0.36842105       0.007
   0.34210526  0.00000000  0.34210526       0.007
   0.31578947  0.00000000  0.31578947       0.007
   0.28947368  0.00000000  0.28947368       0.007
   0.26315789  0.00000000  0.26315789       0.007
   0.23684211  0.00000000  0.23684211       0.007
   0.21052632  0.00000000  0.21052632       0.007
   0.18421053  0.00000000  0.18421053       0.007
   0.15789474  0.00000000  0.15789474       0.007
   0.13157895  0.00000000  0.13157895       0.007
   0.10526316  0.00000000  0.10526316       0.007
   0.07894737  0.00000000  0.07894737       0.007
   0.05263158  0.00000000  0.05263158       0.007
   0.02631579  0.00000000  0.02631579       0.007
   0.00000000  0.00000000  0.00000000       0.007
 
 position of ions in fractional coordinates (direct lattice) 
   0.39175011  0.39175010  0.39175009
   0.16178193  0.16178193  0.16178197
   0.93713466  0.93713467  0.93713466
   0.04379350  0.04379350  0.04379350
   0.29959371  0.29959371  0.29959368
   0.46096703  0.46096703  0.46096701
   0.87037907  0.87037906  0.87037910
 
 position of ions in cartesian coordinates  (Angst):
  -0.00000003  0.00000000 14.39936103
  -0.00000002 -0.00000010  5.94653734
  -0.00000008 -0.00000004 34.44578647
  -0.00000001 -0.00000001  1.60969554
  -0.00000001  0.00000005 11.01201461
  -0.00000003  0.00000002 16.94353255
  -0.00000006 -0.00000012 31.99208506
 


--------------------------------------------------------------------------------------------------------


 k-point   1 :   0.0000 0.0000 0.0000  plane waves:    4047
 k-point   2 :   0.0263 0.0263 0.0263  plane waves:    4041
 k-point   3 :   0.0526 0.0526 0.0526  plane waves:    4041
 k-point   4 :   0.0789 0.0789 0.0789  plane waves:    4035
 k-point   5 :   0.1053 0.1053 0.1053  plane waves:    4035
 k-point   6 :   0.1316 0.1316 0.1316  plane waves:    4047
 k-point   7 :   0.1579 0.1579 0.1579  plane waves:    4047
 k-point   8 :   0.1842 0.1842 0.1842  plane waves:    4053
 k-point   9 :   0.2105 0.2105 0.2105  plane waves:    4053
 k-point  10 :   0.2368 0.2368 0.2368  plane waves:    4056
 k-point  11 :   0.2632 0.2632 0.2632  plane waves:    4080
 k-point  12 :   0.2895 0.2895 0.2895  plane waves:    4077
 k-point  13 :   0.3158 0.3158 0.3158  plane waves:    4077
 k-point  14 :   0.3421 0.3421 0.3421  plane waves:    4082
 k-point  15 :   0.3684 0.3684 0.3684  plane waves:    4085
 k-point  16 :   0.3947 0.3947 0.3947  plane waves:    4085
 k-point  17 :   0.4211 0.4211 0.4211  plane waves:    4067
 k-point  18 :   0.4474 0.4474 0.4474  plane waves:    4055
 k-point  19 :   0.4737 0.4737 0.4737  plane waves:    4052
 k-point  20 :   0.5000 0.5000 0.5000  plane waves:    4040
 k-point  21 :   0.5000 0.5000 0.5000  plane waves:    4040
 k-point  22 :   0.5173 0.4827 0.5000  plane waves:    4046
 k-point  23 :   0.5345 0.4655 0.5000  plane waves:    4052
 k-point  24 :   0.5518 0.4482 0.5000  plane waves:    4048
 k-point  25 :   0.5690 0.4310 0.5000  plane waves:    4038
 k-point  26 :   0.5863 0.4137 0.5000  plane waves:    4048
 k-point  27 :   0.6036 0.3964 0.5000  plane waves:    4054
 k-point  28 :   0.6208 0.3792 0.5000  plane waves:    4060
 k-point  29 :   0.6381 0.3619 0.5000  plane waves:    4070
 k-point  30 :   0.6554 0.3446 0.5000  plane waves:    4074
 k-point  31 :   0.6726 0.3274 0.5000  plane waves:    4080
 k-point  32 :   0.6899 0.3101 0.5000  plane waves:    4086
 k-point  33 :   0.7071 0.2929 0.5000  plane waves:    4080
 k-point  34 :   0.7244 0.2756 0.5000  plane waves:    4078
 k-point  35 :   0.7417 0.2583 0.5000  plane waves:    4072
 k-point  36 :   0.7589 0.2411 0.5000  plane waves:    4072
 k-point  37 :   0.7762 0.2238 0.5000  plane waves:    4088
 k-point  38 :   0.7934 0.2066 0.5000  plane waves:    4098
 k-point  39 :   0.8107 0.1893 0.5000  plane waves:    4088
 k-point  40 :   0.8280 0.1720 0.5000  plane waves:    4096
 k-point  41 :   0.5000-0.1720 0.1720  plane waves:    4096
 k-point  42 :   0.5000-0.1630 0.1630  plane waves:    4098
 k-point  43 :   0.5000-0.1539 0.1539  plane waves:    4096
 k-point  44 :   0.5000-0.1449 0.1449  plane waves:    4094
 k-point  45 :   0.5000-0.1358 0.1358  plane waves:    4096
 k-point  46 :   0.5000-0.1268 0.1268  plane waves:    4096
 k-point  47 :   0.5000-0.1177 0.1177  plane waves:    4090
 k-point  48 :   0.5000-0.1087 0.1087  plane waves:    4088
 k-point  49 :   0.5000-0.0996 0.0996  plane waves:    4086
 k-point  50 :   0.5000-0.0905 0.0905  plane waves:    4088
 k-point  51 :   0.5000-0.0815 0.0815  plane waves:    4086
 k-point  52 :   0.5000-0.0724 0.0724  plane waves:    4086
 k-point  53 :   0.5000-0.0634 0.0634  plane waves:    4080
 k-point  54 :   0.5000-0.0543 0.0543  plane waves:    4082
 k-point  55 :   0.5000-0.0453 0.0453  plane waves:    4088
 k-point  56 :   0.5000-0.0362 0.0362  plane waves:    4090
 k-point  57 :   0.5000-0.0272 0.0272  plane waves:    4092
 k-point  58 :   0.5000-0.0181 0.0181  plane waves:    4092
 k-point  59 :   0.5000-0.0091 0.0091  plane waves:    4092
 k-point  60 :   0.5000 0.0000-0.0000  plane waves:    4094
 k-point  61 :   0.5000 0.0000 0.0000  plane waves:    4094
 k-point  62 :   0.4737 0.0000 0.0000  plane waves:    4089
 k-point  63 :   0.4474 0.0000 0.0000  plane waves:    4094
 k-point  64 :   0.4211 0.0000 0.0000  plane waves:    4082
 k-point  65 :   0.3947 0.0000 0.0000  plane waves:    4072
 k-point  66 :   0.3684 0.0000 0.0000  plane waves:    4078
 k-point  67 :   0.3421 0.0000 0.0000  plane waves:    4068
 k-point  68 :   0.3158 0.0000 0.0000  plane waves:    4074
 k-point  69 :   0.2895 0.0000 0.0000  plane waves:    4076
 k-point  70 :   0.2632 0.0000 0.0000  plane waves:    4076
 k-point  71 :   0.2368 0.0000 0.0000  plane waves:    4064
 k-point  72 :   0.2105 0.0000 0.0000  plane waves:    4062
 k-point  73 :   0.1842 0.0000 0.0000  plane waves:    4059
 k-point  74 :   0.1579 0.0000 0.0000  plane waves:    4050
 k-point  75 :   0.1316 0.0000 0.0000  plane waves:    4050
 k-point  76 :   0.1053 0.0000 0.0000  plane waves:    4042
 k-point  77 :   0.0789 0.0000 0.0000  plane waves:    4043
 k-point  78 :   0.0526 0.0000 0.0000  plane waves:    4043
 k-point  79 :   0.0263 0.0000 0.0000  plane waves:    4039
 k-point  80 :   0.0000 0.0000 0.0000  plane waves:    4047
 k-point  81 :   0.0000 0.0000 0.0000  plane waves:    4047
 k-point  82 :   0.0177-0.0177 0.0000  plane waves:    4043
 k-point  83 :   0.0354-0.0354 0.0000  plane waves:    4045
 k-point  84 :   0.0531-0.0531 0.0000  plane waves:    4043
 k-point  85 :   0.0707-0.0707 0.0000  plane waves:    4039
 k-point  86 :   0.0884-0.0884 0.0000  plane waves:    4043
 k-point  87 :   0.1061-0.1061 0.0000  plane waves:    4045
 k-point  88 :   0.1238-0.1238 0.0000  plane waves:    4065
 k-point  89 :   0.1415-0.1415 0.0000  plane waves:    4077
 k-point  90 :   0.1592-0.1592 0.0000  plane waves:    4065
 k-point  91 :   0.1769-0.1769 0.0000  plane waves:    4065
 k-point  92 :   0.1945-0.1945 0.0000  plane waves:    4075
 k-point  93 :   0.2122-0.2122 0.0000  plane waves:    4079
 k-point  94 :   0.2299-0.2299 0.0000  plane waves:    4079
 k-point  95 :   0.2476-0.2476 0.0000  plane waves:    4085
 k-point  96 :   0.2653-0.2653 0.0000  plane waves:    4095
 k-point  97 :   0.2830-0.2830 0.0000  plane waves:    4099
 k-point  98 :   0.3006-0.3006 0.0000  plane waves:    4095
 k-point  99 :   0.3183-0.3183 0.0000  plane waves:    4103
 k-point 100 :   0.3360-0.3360 0.0000  plane waves:    4103
 k-point 101 :   0.6640 0.0000 0.3360  plane waves:    4103
 k-point 102 :   0.6554 0.0000 0.3446  plane waves:    4109
 k-point 103 :   0.6467 0.0000 0.3533  plane waves:    4095
 k-point 104 :   0.6381 0.0000 0.3619  plane waves:    4099
 k-point 105 :   0.6295 0.0000 0.3705  plane waves:    4099
 k-point 106 :   0.6208 0.0000 0.3792  plane waves:    4107
 k-point 107 :   0.6122 0.0000 0.3878  plane waves:    4103
 k-point 108 :   0.6036 0.0000 0.3964  plane waves:    4105
 k-point 109 :   0.5949 0.0000 0.4051  plane waves:    4107
 k-point 110 :   0.5863 0.0000 0.4137  plane waves:    4097
 k-point 111 :   0.5777 0.0000 0.4223  plane waves:    4099
 k-point 112 :   0.5690 0.0000 0.4310  plane waves:    4095
 k-point 113 :   0.5604 0.0000 0.4396  plane waves:    4093
 k-point 114 :   0.5518 0.0000 0.4482  plane waves:    4085
 k-point 115 :   0.5432 0.0000 0.4568  plane waves:    4088
 k-point 116 :   0.5345 0.0000 0.4655  plane waves:    4084
 k-point 117 :   0.5259 0.0000 0.4741  plane waves:    4084
 k-point 118 :   0.5173 0.0000 0.4827  plane waves:    4082
 k-point 119 :   0.5086 0.0000 0.4914  plane waves:    4088
 k-point 120 :   0.5000 0.0000 0.5000  plane waves:    4088
 k-point 121 :   0.5000 0.0000 0.5000  plane waves:    4088
 k-point 122 :   0.4737 0.0000 0.4737  plane waves:    4083
 k-point 123 :   0.4474 0.0000 0.4474  plane waves:    4083
 k-point 124 :   0.4211 0.0000 0.4211  plane waves:    4073
 k-point 125 :   0.3947 0.0000 0.3947  plane waves:    4073
 k-point 126 :   0.3684 0.0000 0.3684  plane waves:    4080
 k-point 127 :   0.3421 0.0000 0.3421  plane waves:    4081
 k-point 128 :   0.3158 0.0000 0.3158  plane waves:    4073
 k-point 129 :   0.2895 0.0000 0.2895  plane waves:    4069
 k-point 130 :   0.2632 0.0000 0.2632  plane waves:    4079
 k-point 131 :   0.2368 0.0000 0.2368  plane waves:    4081
 k-point 132 :   0.2105 0.0000 0.2105  plane waves:    4070
 k-point 133 :   0.1842 0.0000 0.1842  plane waves:    4062
 k-point 134 :   0.1579 0.0000 0.1579  plane waves:    4053
 k-point 135 :   0.1316 0.0000 0.1316  plane waves:    4046
 k-point 136 :   0.1053 0.0000 0.1053  plane waves:    4046
 k-point 137 :   0.0789 0.0000 0.0789  plane waves:    4044
 k-point 138 :   0.0526 0.0000 0.0526  plane waves:    4043
 k-point 139 :   0.0263 0.0000 0.0263  plane waves:    4039
 k-point 140 :   0.0000 0.0000 0.0000  plane waves:    4047

 maximum and minimum number of plane-waves per node :       465      442

 maximum number of plane-waves:      4109
 maximum index in each direction: 
   IXMAX=   22   IYMAX=   22   IZMAX=   22
   IXMIN=  -23   IYMIN=  -23   IZMIN=  -23


 parallel 3D FFT for wavefunctions:
    minimum data exchange during FFTs selected (reduces bandwidth)
 parallel 3D FFT for charge:
    minimum data exchange during FFTs selected (reduces bandwidth)


 total amount of memory used by VASP MPI-rank0   114018. kBytes
=======================================================================

   base      :      30000. kBytes
   nonl-proj :      27629. kBytes
   fftplans  :      17696. kBytes
   grid      :      28016. kBytes
   one-center:         15. kBytes
   wavefun   :      10662. kBytes
 
     INWAV:  cpu time      0.0000: real time      0.0003
 initial charge density was supplied:
 number of electron      62.0000004 magnetization 
 keeping initial charge density in first step


--------------------------------------------------------------------------------------------------------


 Maximum index for augmentation-charges         8482 (set IRDMAX)


--------------------------------------------------------------------------------------------------------


 First call to EWALD:  gamma=   0.326
 Maximum number of real-space cells 4x 4x 4
 Maximum number of reciprocal cells 6x 6x 6

    FEWALD:  cpu time      0.0023: real time      0.0023


--------------------------------------- Iteration      1(   1)  ---------------------------------------


    POTLOK:  cpu time      0.2278: real time      0.2287
    SETDIJ:  cpu time      0.1506: real time      0.1510
     EDDAV:  cpu time     18.1324: real time     18.2043
       DOS:  cpu time      0.0029: real time      0.0030
    --------------------------------------------
      LOOP:  cpu time     18.5137: real time     18.5870

 eigenvalue-minimisations  : 11208
 total energy-change (2. order) : 0.5948052E+03  (-0.2772317E+04)
 number of electron      62.0000004 magnetization 
 augmentation part       62.0000004 magnetization 

 Free energy of the ion-electron system (eV)
  ---------------------------------------------------
  alpha Z        PSCENC =       144.36138454
  Ewald energy   TEWEN  =     -4033.89893700
  -Hartree energ DENC   =     -1931.19976897
  -exchange      EXHF   =         0.00000000
  -V(xc)+E(xc)   XCENC  =       190.73264886
  PAW double counting   =      8145.80785260    -8291.15952555
  entropy T*S    EENTRO =        -0.00240046
  eigenvalues    EBANDS =       360.39491836
  atomic energy  EATOM  =      6009.76902234
  Solvation  Ediel_sol  =         0.00000000
  ---------------------------------------------------
  free energy    TOTEN  =       594.80519471 eV

  energy without entropy =      594.80759517  energy(sigma->0) =      594.80639494


--------------------------------------------------------------------------------------------------------




--------------------------------------- Iteration      1(   2)  ---------------------------------------


     EDDAV:  cpu time     18.1211: real time     18.1853
       DOS:  cpu time      0.0028: real time      0.0028
    --------------------------------------------
      LOOP:  cpu time     18.1239: real time     18.1881

 eigenvalue-minimisations  : 11304
 total energy-change (2. order) :-0.5291520E+03  (-0.5078727E+03)
 number of electron      62.0000004 magnetization 
 augmentation part       62.0000004 magnetization 

 Free energy of the ion-electron system (eV)
  ---------------------------------------------------
  alpha Z        PSCENC =       144.36138454
  Ewald energy   TEWEN  =     -4033.89893700
  -Hartree energ DENC   =     -1931.19976897
  -exchange      EXHF   =         0.00000000
  -V(xc)+E(xc)   XCENC  =       190.73264886
  PAW double counting   =      8145.80785260    -8291.15952555
  entropy T*S    EENTRO =        -0.00143860
  eigenvalues    EBANDS =      -168.75801541
  atomic energy  EATOM  =      6009.76902234
  Solvation  Ediel_sol  =         0.00000000
  ---------------------------------------------------
  free energy    TOTEN  =        65.65322280 eV

  energy without entropy =       65.65466140  energy(sigma->0) =       65.65394210


--------------------------------------------------------------------------------------------------------




--------------------------------------- Iteration      1(   3)  ---------------------------------------


     EDDAV:  cpu time     21.0531: real time     21.1475
       DOS:  cpu time      0.0029: real time      0.0029
    --------------------------------------------
      LOOP:  cpu time     21.0560: real time     21.1504

 eigenvalue-minimisations  : 13968
 total energy-change (2. order) :-0.8364593E+02  (-0.8071591E+02)
 number of electron      62.0000004 magnetization 
 augmentation part       62.0000004 magnetization 

 Free energy of the ion-electron system (eV)
  ---------------------------------------------------
  alpha Z        PSCENC =       144.36138454
  Ewald energy   TEWEN  =     -4033.89893700
  -Hartree energ DENC   =     -1931.19976897
  -exchange      EXHF   =         0.00000000
  -V(xc)+E(xc)   XCENC  =       190.73264886
  PAW double counting   =      8145.80785260    -8291.15952555
  entropy T*S    EENTRO =        -0.00154783
  eigenvalues    EBANDS =      -252.40383616
  atomic energy  EATOM  =      6009.76902234
  Solvation  Ediel_sol  =         0.00000000
  ---------------------------------------------------
  free energy    TOTEN  =       -17.99270718 eV

  energy without entropy =      -17.99115936  energy(sigma->0) =      -17.99193327


--------------------------------------------------------------------------------------------------------




--------------------------------------- Iteration      1(   4)  ---------------------------------------


     EDDAV:  cpu time     20.3458: real time     20.4222
       DOS:  cpu time      0.0022: real time      0.0022
    --------------------------------------------
      LOOP:  cpu time     20.3480: real time     20.4244

 eigenvalue-minimisations  : 13440
 total energy-change (2. order) :-0.4726473E+01  (-0.4687388E+01)
 number of electron      62.0000004 magnetization 
 augmentation part       62.0000004 magnetization 

 Free energy of the ion-electron system (eV)
  ---------------------------------------------------
  alpha Z        PSCENC =       144.36138454
  Ewald energy   TEWEN  =     -4033.89893700
  -Hartree energ DENC   =     -1931.19976897
  -exchange      EXHF   =         0.00000000
  -V(xc)+E(xc)   XCENC  =       190.73264886
  PAW double counting   =      8145.80785260    -8291.15952555
  entropy T*S    EENTRO =        -0.00001019
  eigenvalues    EBANDS =      -257.13184638
  atomic energy  EATOM  =      6009.76902234
  Solvation  Ediel_sol  =         0.00000000
  ---------------------------------------------------
  free energy    TOTEN  =       -22.71917976 eV

  energy without entropy =      -22.71916957  energy(sigma->0) =      -22.71917467


--------------------------------------------------------------------------------------------------------




--------------------------------------- Iteration      1(   5)  ---------------------------------------


     EDDAV:  cpu time     23.3570: real time     23.4442
       DOS:  cpu time      0.0024: real time      0.0024
    --------------------------------------------
      LOOP:  cpu time     23.3594: real time     23.4466

 eigenvalue-minimisations  : 16368
 total energy-change (2. order) :-0.2011742E+00  (-0.2010888E+00)
 number of electron      62.0000004 magnetization 
 augmentation part       62.0000004 magnetization 

 Free energy of the ion-electron system (eV)
  ---------------------------------------------------
  alpha Z        PSCENC =       144.36138454
  Ewald energy   TEWEN  =     -4033.89893700
  -Hartree energ DENC   =     -1931.19976897
  -exchange      EXHF   =         0.00000000
  -V(xc)+E(xc)   XCENC  =       190.73264886
  PAW double counting   =      8145.80785260    -8291.15952555
  entropy T*S    EENTRO =        -0.00001069
  eigenvalues    EBANDS =      -257.33302010
  atomic energy  EATOM  =      6009.76902234
  Solvation  Ediel_sol  =         0.00000000
  ---------------------------------------------------
  free energy    TOTEN  =       -22.92035398 eV

  energy without entropy =      -22.92034329  energy(sigma->0) =      -22.92034864


--------------------------------------------------------------------------------------------------------




--------------------------------------- Iteration      1(   6)  ---------------------------------------


     EDDAV:  cpu time     23.4422: real time     23.5303
       DOS:  cpu time      0.0024: real time      0.0024
    --------------------------------------------
      LOOP:  cpu time     23.4446: real time     23.5327

 eigenvalue-minimisations  : 16424
 total energy-change (2. order) :-0.4600001E-02  (-0.4599715E-02)
 number of electron      62.0000004 magnetization 
 augmentation part       62.0000004 magnetization 

 Free energy of the ion-electron system (eV)
  ---------------------------------------------------
  alpha Z        PSCENC =       144.36138454
  Ewald energy   TEWEN  =     -4033.89893700
  -Hartree energ DENC   =     -1931.19976897
  -exchange      EXHF   =         0.00000000
  -V(xc)+E(xc)   XCENC  =       190.73264886
  PAW double counting   =      8145.80785260    -8291.15952555
  entropy T*S    EENTRO =        -0.00001078
  eigenvalues    EBANDS =      -257.33762001
  atomic energy  EATOM  =      6009.76902234
  Solvation  Ediel_sol  =         0.00000000
  ---------------------------------------------------
  free energy    TOTEN  =       -22.92495398 eV

  energy without entropy =      -22.92494320  energy(sigma->0) =      -22.92494859


--------------------------------------------------------------------------------------------------------




--------------------------------------- Iteration      1(   7)  ---------------------------------------


     EDDAV:  cpu time     23.9913: real time     24.0807
       DOS:  cpu time      0.0023: real time      0.0023
    --------------------------------------------
      LOOP:  cpu time     23.9936: real time     24.0830

 eigenvalue-minimisations  : 16968
 total energy-change (2. order) :-0.1403884E-03  (-0.1403870E-03)
 number of electron      62.0000004 magnetization 
 augmentation part       62.0000004 magnetization 

 Free energy of the ion-electron system (eV)
  ---------------------------------------------------
  alpha Z        PSCENC =       144.36138454
  Ewald energy   TEWEN  =     -4033.89893700
  -Hartree energ DENC   =     -1931.19976897
  -exchange      EXHF   =         0.00000000
  -V(xc)+E(xc)   XCENC  =       190.73264886
  PAW double counting   =      8145.80785260    -8291.15952555
  entropy T*S    EENTRO =        -0.00001078
  eigenvalues    EBANDS =      -257.33776039
  atomic energy  EATOM  =      6009.76902234
  Solvation  Ediel_sol  =         0.00000000
  ---------------------------------------------------
  free energy    TOTEN  =       -22.92509437 eV

  energy without entropy =      -22.92508359  energy(sigma->0) =      -22.92508898


--------------------------------------------------------------------------------------------------------




--------------------------------------- Iteration      1(   8)  ---------------------------------------


     EDDAV:  cpu time     23.6855: real time     23.7698
       DOS:  cpu time      0.0024: real time      0.0024
    --------------------------------------------
      LOOP:  cpu time     23.6878: real time     23.7722

 eigenvalue-minimisations  : 16696
 total energy-change (2. order) :-0.3332148E-05  (-0.3332363E-05)
 number of electron      62.0000004 magnetization 
 augmentation part       62.0000004 magnetization 

 Free energy of the ion-electron system (eV)
  ---------------------------------------------------
  alpha Z        PSCENC =       144.36138454
  Ewald energy   TEWEN  =     -4033.89893700
  -Hartree energ DENC   =     -1931.19976897
  -exchange      EXHF   =         0.00000000
  -V(xc)+E(xc)   XCENC  =       190.73264886
  PAW double counting   =      8145.80785260    -8291.15952555
  entropy T*S    EENTRO =        -0.00001078
  eigenvalues    EBANDS =      -257.33776373
  atomic energy  EATOM  =      6009.76902234
  Solvation  Ediel_sol  =         0.00000000
  ---------------------------------------------------
  free energy    TOTEN  =       -22.92509770 eV

  energy without entropy =      -22.92508692  energy(sigma->0) =      -22.92509231


--------------------------------------------------------------------------------------------------------




--------------------------------------- Iteration      1(   9)  ---------------------------------------


     EDDAV:  cpu time     24.5262: real time     24.6171
       DOS:  cpu time      0.0024: real time      0.0024
    --------------------------------------------
      LOOP:  cpu time     24.5286: real time     24.6195

 eigenvalue-minimisations  : 16152
 total energy-change (2. order) :-0.1148510E-06  (-0.1153850E-06)
 number of electron      62.0000004 magnetization 
 augmentation part       62.0000004 magnetization 

 Free energy of the ion-electron system (eV)
  ---------------------------------------------------
  alpha Z        PSCENC =       144.36138454
  Ewald energy   TEWEN  =     -4033.89893700
  -Hartree energ DENC   =     -1931.19976897
  -exchange      EXHF   =         0.00000000
  -V(xc)+E(xc)   XCENC  =       190.73264886
  PAW double counting   =      8145.80785260    -8291.15952555
  entropy T*S    EENTRO =        -0.00001078
  eigenvalues    EBANDS =      -257.33776384
  atomic energy  EATOM  =      6009.76902234
  Solvation  Ediel_sol  =         0.00000000
  ---------------------------------------------------
  free energy    TOTEN  =       -22.92509782 eV

  energy without entropy =      -22.92508703  energy(sigma->0) =      -22.92509243


--------------------------------------------------------------------------------------------------------




--------------------------------------- Iteration      1(  10)  ---------------------------------------


     EDDAV:  cpu time     15.8737: real time     15.9279
       DOS:  cpu time      0.0024: real time      0.0024
    --------------------------------------------
      LOOP:  cpu time     15.8761: real time     15.9303

 eigenvalue-minimisations  :  9096
 total energy-change (2. order) :-0.3016794E-08  (-0.2758192E-08)
 number of electron      62.0000004 magnetization 
 augmentation part       62.0000004 magnetization 

[...]
     33       6.5216      0.00000
     34       7.7080      0.00000
     35       8.1119      0.00000
     36       8.5291      0.00000
     37       9.0694      0.00000
     38       9.1191      0.00000
     39       9.6325      0.00000
     40       9.9662      0.00000

 k-point   136 :       0.1053    0.0000    0.1053
  band No.  band energies     occupation 
      1     -11.1104      2.00000
      2     -10.9252      2.00000
      3     -10.8893      2.00000
      4     -10.7335      2.00000
      5     -10.7237      2.00000
      6     -10.4268      2.00000
      7     -10.3586      2.00000
      8     -10.3245      2.00000
      9     -10.2328      2.00000
     10     -10.2226      2.00000
     11      -9.6707      2.00000
     12      -9.1183      2.00000
     13      -8.1628      2.00000
     14      -7.4112      2.00000
     15      -2.0617      2.00000
     16      -1.6413      2.00000
     17      -1.6199      2.00000
     18      -1.3899      2.00000
     19      -1.2127      2.00000
     20      -1.2007      2.00000
     21       0.1899      2.00000
     22       1.2749      2.00000
     23       1.5465      2.00000
     24       1.8266      2.00000
     25       2.0593      2.00000
     26       2.3767      2.00000
     27       2.5853      2.00000
     28       2.9722      2.00000
     29       3.7088      2.00000
     30       3.9453      2.00000
     31       4.2684      2.00000
     32       5.2384      0.00000
     33       6.4542      0.00000
     34       7.5648      0.00000
     35       8.0830      0.00000
     36       8.4769      0.00000
     37       9.0261      0.00000
     38       9.0515      0.00000
     39       9.5618      0.00000
     40       9.8350      0.00000

 k-point   137 :       0.0789    0.0000    0.0789
  band No.  band energies     occupation 
      1     -11.1032      2.00000
      2     -10.9154      2.00000
      3     -10.8935      2.00000
      4     -10.7300      2.00000
      5     -10.7241      2.00000
      6     -10.4048      2.00000
      7     -10.3622      2.00000
      8     -10.3339      2.00000
      9     -10.2295      2.00000
     10     -10.2234      2.00000
     11      -9.7261      2.00000
     12      -9.1551      2.00000
     13      -8.2054      2.00000
     14      -7.4362      2.00000
     15      -2.0777      2.00000
     16      -1.6424      2.00000
     17      -1.6298      2.00000
     18      -1.3997      2.00000
     19      -1.2075      2.00000
     20      -1.2006      2.00000
     21       0.2568      2.00000
     22       1.3362      2.00000
     23       1.6728      2.00000
     24       1.8841      2.00000
     25       2.2616      2.00000
     26       2.4658      2.00000
     27       2.7226      2.00000
     28       2.9524      2.00000
     29       3.8300      2.00000
     30       4.0201      2.00000
     31       4.3322      2.00000
     32       5.0585      0.00000
     33       6.3609      0.00000
     34       7.3906      0.00000
     35       8.0085      0.00000
     36       8.5144      0.00000
     37       8.9466      0.00000
     38       9.0571      0.00000
     39       9.5315      0.00000
     40       9.7266      0.00000

 k-point   138 :       0.0526    0.0000    0.0526
  band No.  band energies     occupation 
      1     -11.0986      2.00000
      2     -10.9070      2.00000
      3     -10.8967      2.00000
      4     -10.7271      2.00000
      5     -10.7243      2.00000
      6     -10.3870      2.00000
      7     -10.3649      2.00000
      8     -10.3425      2.00000
      9     -10.2268      2.00000
     10     -10.2238      2.00000
     11      -9.7673      2.00000
     12      -9.1815      2.00000
     13      -8.2372      2.00000
     14      -7.4545      2.00000
     15      -2.0903      2.00000
     16      -1.6428      2.00000
     17      -1.6371      2.00000
     18      -1.4068      2.00000
     19      -1.2036      2.00000
     20      -1.2005      2.00000
     21       0.3017      2.00000
     22       1.3435      2.00000
     23       1.8186      2.00000
     24       1.9271      2.00000
     25       2.4405      2.00000
     26       2.5422      2.00000
     27       2.8224      2.00000
     28       2.9276      2.00000
     29       3.8313      2.00000
     30       4.1899      2.00000
     31       4.3801      2.00000
     32       4.8884      0.00000
     33       6.2706      0.00000
     34       7.2357      0.00000
     35       7.9004      0.00000
     36       8.6237      0.00000
     37       8.8859      0.00000
     38       9.0378      0.00000
     39       9.5409      0.00000
     40       9.6456      0.00000

 k-point   139 :       0.0263    0.0000    0.0263
  band No.  band energies     occupation 
      1     -11.0961      2.00000
      2     -10.9013      2.00000
      3     -10.8986      2.00000
      4     -10.7251      2.00000
      5     -10.7244      2.00000
      6     -10.3737      2.00000
      7     -10.3665      2.00000
      8     -10.3502      2.00000
      9     -10.2248      2.00000
     10     -10.2241      2.00000
     11      -9.7927      2.00000
     12      -9.1974      2.00000
     13      -8.2568      2.00000
     14      -7.4656      2.00000
     15      -2.0985      2.00000
     16      -1.6430      2.00000
     17      -1.6415      2.00000
     18      -1.4111      2.00000
     19      -1.2012      2.00000
     20      -1.2004      2.00000
     21       0.3275      2.00000
     22       1.3402      2.00000
     23       1.9245      2.00000
     24       1.9538      2.00000
     25       2.5698      2.00000
     26       2.5975      2.00000
     27       2.8777      2.00000
     28       2.9041      2.00000
     29       3.8164      2.00000
     30       4.3434      2.00000
     31       4.4098      1.99997
     32       4.7441      0.00000
     33       6.2063      0.00000
     34       7.1303      0.00000
     35       7.8150      0.00000
     36       8.7497      0.00000
     37       8.8480      0.00000
     38       8.9806      0.00000
     39       9.5663      0.00000
     40       9.5956      0.00000

 k-point   140 :       0.0000    0.0000    0.0000
  band No.  band energies     occupation 
      1     -11.0953      2.00000
      2     -10.8992      2.00000
      3     -10.8992      2.00000
      4     -10.7244      2.00000
      5     -10.7244      2.00000
      6     -10.3671      2.00000
      7     -10.3671      2.00000
      8     -10.3549      2.00000
      9     -10.2242      2.00000
     10     -10.2242      2.00000
     11      -9.8013      2.00000
     12      -9.2027      2.00000
     13      -8.2634      2.00000
     14      -7.4694      2.00000
     15      -2.1013      2.00000
     16      -1.6430      2.00000
     17      -1.6430      2.00000
     18      -1.4126      2.00000
     19      -1.2004      2.00000
     20      -1.2004      2.00000
     21       0.3359      2.00000
     22       1.3383      2.00000
     23       1.9629      2.00000
     24       1.9629      2.00000
     25       2.6188      2.00000
     26       2.6188      2.00000
     27       2.8936      2.00000
     28       2.8936      2.00000
     29       3.8099      2.00000
     30       4.4199      1.99989
     31       4.4199      1.99989
     32       4.6709      0.00121
     33       6.1830      0.00000
     34       7.0930      0.00000
     35       7.7834      0.00000
     36       8.8351      0.00000
     37       8.8351      0.00000
     38       8.9199      0.00000
     39       9.5787      0.00000
     40       9.5787      0.00000


--------------------------------------------------------------------------------------------------------


 soft charge-density along one line, spin component           1
         0         1         2         3         4         5         6         7         8         9
 total charge-density along one line
 
 pseudopotential strength for first ion, spin component:           1
 -7.658  -0.000   0.000  -0.000  -0.000   0.000   0.002  -0.000  -0.000   0.000  -8.143  -0.000   0.000  -0.000  -0.000   0.000
  0.000  -0.000  -7.711  -0.000   0.000  -0.000   0.000  -0.000   0.002   0.000   0.000  -0.000  -8.193  -0.000   0.000  -0.000
 -0.000   0.000   0.000  -0.000  -7.729  -0.000   0.000  -0.000  -0.000   0.000  -0.000   0.000   0.000  -0.000  -8.210  -0.000
  0.002  -0.000   0.000  -0.000   0.000  -0.000  -7.711  -0.000   0.000  -0.000   0.002  -0.000   0.000  -0.000   0.000  -0.000
 -0.000   0.000   0.002   0.000  -0.000   0.000   0.000  -0.000  -7.658  -0.000  -0.000   0.000   0.002   0.000  -0.000   0.000
 -8.143  -0.000   0.000  -0.000  -0.000   0.000   0.002  -0.000  -0.000   0.000  -8.545  -0.000   0.000  -0.000  -0.000   0.000
  0.000  -0.000  -8.193  -0.000   0.000  -0.000   0.000  -0.000   0.002   0.000   0.000  -0.000  -8.592  -0.000   0.000  -0.000
 -0.000   0.000   0.000  -0.000  -8.210  -0.000   0.000  -0.000  -0.000   0.000  -0.000   0.000   0.000  -0.000  -8.609  -0.000
  0.002  -0.000   0.000  -0.000   0.000  -0.000  -8.193  -0.000   0.000  -0.000   0.002  -0.000   0.000  -0.000   0.000  -0.000
 -0.000   0.000   0.002   0.000  -0.000   0.000   0.000  -0.000  -8.143  -0.000  -0.000   0.000   0.002   0.000  -0.000   0.000
 -0.000  -0.000   0.000  -0.000  -0.001   0.000  -0.000  -0.000   0.000  -0.000  -0.000  -0.000   0.000  -0.000  -0.000   0.000
 -0.000  -0.000   0.000  -0.000  -0.002   0.000  -0.000  -0.000   0.000  -0.000  -0.000  -0.000   0.000  -0.000  -0.001   0.000
 -0.000  -0.000   0.010  -0.000   0.000   0.000  -0.000   0.000  -0.002   0.000  -0.000  -0.000   0.009  -0.000   0.000   0.000
 -0.000   0.000  -0.000  -0.000   0.009  -0.000  -0.000  -0.000   0.000   0.000  -0.000   0.000  -0.000  -0.000   0.009  -0.000
 -0.002  -0.000  -0.000   0.000   0.000   0.000   0.010  -0.000  -0.000  -0.000  -0.002  -0.000  -0.000   0.000   0.000   0.000
 -0.000  -0.000   0.010  -0.000   0.000   0.000  -0.000   0.000  -0.001   0.000  -0.000  -0.000   0.010  -0.000   0.000   0.000
 -0.000   0.000  -0.000  -0.000   0.010  -0.000  -0.000  -0.000   0.000   0.000  -0.000   0.000  -0.000  -0.000   0.010  -0.000
 -0.001  -0.000  -0.000   0.000   0.000   0.000   0.010  -0.000  -0.000  -0.000  -0.001  -0.000  -0.000   0.000   0.000   0.000
 total augmentation occupancy for first ion, spin component:           1
  2.000   0.000   0.000   0.000   0.000   0.000   0.000   0.000   0.000   0.000   0.000   0.000   0.000   0.000   0.000   0.000
  0.000   2.000   0.000   0.000   0.000   0.000   0.000   0.000   0.000   0.000   0.000   0.000   0.000   0.000   0.000   0.000
  0.000   0.000   2.000   0.000   0.000   0.000   0.000   0.000   0.000   0.000   0.000   0.000   0.000   0.000   0.000   0.000
  0.000   0.000   0.000   2.000   0.000   0.000   0.000   0.000   0.000   0.000   0.000   0.000   0.000   0.000   0.000   0.000
  0.000   0.000   0.000   0.000   2.000   0.000   0.000   0.000   0.000   0.000   0.000   0.000   0.000   0.000   0.000   0.000
  0.000   0.000   0.000   0.000   0.000   0.000   0.000   0.000   0.000   0.000   0.000   0.000   0.000   0.000   0.000   0.000
  0.000   0.000   0.000   0.000   0.000   0.000   0.000   0.000   0.000   0.000   0.000   0.000   0.000   0.000   0.000   0.000
  0.000   0.000   0.000   0.000   0.000   0.000   0.000   0.000   0.000   0.000   0.000   0.000   0.000   0.000   0.000   0.000
  0.000   0.000   0.000   0.000   0.000   0.000   0.000   0.000   0.000   0.000   0.000   0.000   0.000   0.000   0.000   0.000
  0.000   0.000   0.000   0.000   0.000   0.000   0.000   0.000   0.000   0.000   0.000   0.000   0.000   0.000   0.000   0.000
  0.000   0.000   0.000   0.000   0.000   0.000   0.000   0.000   0.000   0.000   2.000   0.000   0.000   0.000   0.000   0.000
  0.000   0.000   0.000   0.000   0.000   0.000   0.000   0.000   0.000   0.000   0.000   0.000   0.000   0.000   0.000   0.000
  0.000   0.000   0.000   0.000   0.000   0.000   0.000   0.000   0.000   0.000   0.000   0.000   0.000   0.000   0.000   0.000
  0.000   0.000   0.000   0.000   0.000   0.000   0.000   0.000   0.000   0.000   0.000   0.000   0.000   0.000   0.000   0.000
  0.000   0.000   0.000   0.000   0.000   0.000   0.000   0.000   0.000   0.000   0.000   0.000   0.000   0.000   0.000   0.000
  0.000   0.000   0.000   0.000   0.000   0.000   0.000   0.000   0.000   0.000   0.000   0.000   0.000   0.000   0.000   0.000
  0.000   0.000   0.000   0.000   0.000   0.000   0.000   0.000   0.000   0.000   0.000   0.000   0.000   0.000   0.000   0.000
  0.000   0.000   0.000   0.000   0.000   0.000   0.000   0.000   0.000   0.000   0.000   0.000   0.000   0.000   0.000   0.000


------------------------ aborting loop because EDIFF is reached ----------------------------------------





 total charge

# of ion       s       p       d       tot
------------------------------------------
    1        0.478   0.438   9.814  10.730
    2        0.719   0.554   9.951  11.225
    3        0.779   0.652   9.949  11.380
    4        1.298   2.483   0.000   3.781
    5        1.355   2.438   0.000   3.794
    6        1.337   2.459   0.000   3.796
    7        1.336   2.476   0.000   3.811
--------------------------------------------------
tot          7.302  11.501  29.713  48.517
 
    CHARGE:  cpu time      1.6999: real time      1.7052
    FORLOC:  cpu time      0.0163: real time      0.0163
    FORNL :  cpu time      0.4723: real time      0.4739
    STRESS:  cpu time      1.4033: real time      1.4075
    FORCOR:  cpu time      0.2209: real time      0.2216
    FORHAR:  cpu time      0.0709: real time      0.0712
    OFIELD:  cpu time      0.0013: real time      0.0013

  FORCE on cell =-STRESS in cart. coord.  units (eV):
  Direction    XX          YY          ZZ          XY          YZ          ZX
  --------------------------------------------------------------------------------------
  Alpha Z   144.36138   144.36138   144.36138
  Ewald   -1174.00427 -1174.00437 -1685.89483     0.00002     0.00001    -0.00000
  Hartree   766.64689   763.25201   403.01606    -0.16945     0.28080    -0.03936
  E(xc)    -289.37880  -289.59756  -289.44342    -0.00149    -0.00629     0.00180
  Local    -660.73163  -672.39200   215.23996     0.11763    -0.90745     0.17603
  n-local   330.91936   337.52658   324.51182     0.03394     0.29906    -0.05752
  augment   291.63089   289.50279   292.32497    -0.01498     0.02328     0.01175
  Kinetic   599.22523   612.37608   601.00634     0.05101     0.19226    -0.11456
  Fock        0.00000     0.00000     0.00000     0.00000     0.00000     0.00000
  -------------------------------------------------------------------------------------
  Total       8.66906    11.02491     5.12228     0.01666    -0.11833    -0.02186
  in kB      86.53245   110.04804    51.12942     0.16632    -1.18117    -0.21819
  external pressure =       82.57 kB  Pullay stress =        0.00 kB


 VOLUME and BASIS-vectors are now :
 -----------------------------------------------------------------------------
  energy-cutoff  :      500.00
  volume of cell :      160.51
      direct lattice vectors                 reciprocal lattice vectors
     1.944688005  1.122766133 12.252165354     0.257110648  0.148442903  0.027206076
    -1.944688067  1.122766151 12.252165346    -0.257110647  0.148442900  0.027206075
    -0.000000014 -2.245532345 12.252165355    -0.000000001 -0.296885803  0.027206075

  length of vectors
    12.456242254 12.456242258 12.456242266     0.298129756  0.298129753  0.298129754


 FORCES acting on ions
    electron-ion (+dipol)            ewald-force                    non-local-force                 convergence-correction
 -----------------------------------------------------------------------------------------------
   -.637E-01 0.225E+01 0.103E+03   -.435E-05 -.680E-05 -.104E+03   0.685E-02 -.417E+00 0.212E+01   0.522E-01 -.164E+01 -.618E+00
   0.113E+00 -.414E+00 -.502E+02   0.302E-05 0.154E-04 0.496E+02   -.424E-01 0.146E+00 0.243E+01   -.675E-01 0.168E+00 -.158E+01
   0.184E+00 -.123E+01 -.629E+02   0.425E-05 0.847E-05 0.609E+02   -.673E-01 0.276E+00 0.142E+01   -.107E+00 0.619E+00 0.173E+00
   0.164E+00 -.160E+01 0.122E+03   0.480E-05 0.591E-05 -.127E+03   -.848E-01 0.824E+00 0.397E+01   -.455E-01 0.460E+00 0.136E+01
   -.180E+00 0.168E+01 -.113E+03   -.527E-05 -.587E-05 0.122E+03   0.116E+00 -.722E+00 -.795E+01   0.439E-01 -.524E+00 -.667E+00
   -.240E+00 0.194E+01 0.668E+02   -.321E-05 -.139E-04 -.716E+02   0.137E+00 -.108E+01 0.392E+01   0.602E-01 -.509E+00 0.495E+00
   0.684E-01 -.186E+01 -.714E+02   0.756E-06 -.313E-05 0.708E+02   -.269E-01 0.118E+01 0.195E+01   -.232E-01 0.438E+00 -.124E+01
 -----------------------------------------------------------------------------------------------
   0.463E-01 0.781E+00 -.580E+01   0.215E-14 0.193E-13 -.284E-13   0.382E-01 0.206E+00 0.787E+01   -.873E-01 -.987E+00 -.208E+01
 
 
 POSITION                                       TOTAL-FORCE (eV/Angst)
 -----------------------------------------------------------------------------------
     -0.00000      0.00000     14.39936        -0.004186      0.197000      0.155987
     -0.00000     -0.00000      5.94654         0.003971     -0.099449      0.216217
     -0.00000     -0.00000     34.44579         0.009506     -0.331968     -0.435656
     -0.00000     -0.00000      1.60970         0.034342     -0.312235     -0.347753
     -0.00000      0.00000     11.01201        -0.019805      0.438011      0.762746
     -0.00000      0.00000     16.94353        -0.042570      0.344637     -0.425839
     -0.00000     -0.00000     31.99209         0.018741     -0.235996      0.074298
 -----------------------------------------------------------------------------------
    total drift:                               -0.002785     -0.000073     -0.008287


--------------------------------------------------------------------------------------------------------



  FREE ENERGIE OF THE ION-ELECTRON SYSTEM (eV)
  ---------------------------------------------------
  free  energy   TOTEN  =       -22.92509782 eV

  energy  without entropy=      -22.92508704  energy(sigma->0) =      -22.92509243
 


--------------------------------------------------------------------------------------------------------


    POTLOK:  cpu time      0.3731: real time      0.3744


--------------------------------------------------------------------------------------------------------


     LOOP+:  cpu time    224.4398: real time    225.2791
    4ORBIT:  cpu time      0.0000: real time      0.0000



 total charge

# of ion       s       p       d       tot
------------------------------------------
    1        0.478   0.438   9.814  10.730
    2        0.719   0.554   9.951  11.225
    3        0.779   0.652   9.949  11.380
    4        1.298   2.483   0.000   3.781
    5        1.355   2.438   0.000   3.794
    6        1.337   2.459   0.000   3.796
    7        1.336   2.476   0.000   3.811
--------------------------------------------------
tot          7.302  11.501  29.713  48.517
 

 total amount of memory used by VASP MPI-rank0   114018. kBytes
=======================================================================

   base      :      30000. kBytes
   nonl-proj :      27629. kBytes
   fftplans  :      17696. kBytes
   grid      :      28016. kBytes
   one-center:         15. kBytes
   wavefun   :      10662. kBytes
 
  
  
 General timing and accounting informations for this job:
 ========================================================
  
                  Total CPU time used (sec):      242.296
                            User time (sec):      226.586
                          System time (sec):       15.710
                         Elapsed time (sec):      243.793
  
                   Maximum memory used (kb):      327880.
                   Average memory used (kb):          N/A
  
                          Minor page faults:        70884
                          Major page faults:            0
                 Voluntary context switches:         1212
