 vasp.6.3.2 27Jun22 (build Sep 20 2022 16:10:27) complex                        
  
 executed on             LinuxIFC date 2024.10.27  17:57:56
 running on   36 total cores
 distrk:  each k-point on   36 cores,    1 groups
 distr:  one band on NCORE=   9 cores,    4 groups


--------------------------------------------------------------------------------------------------------


 INCAR:
   SYSTEM = PDOS-Calculation-from-SCF
   ISTART = 0
   ICHARG = 11
   ENCUT = 360.0
   ISMEAR = -5
   SIGMA = 0.05
   LREAL = .FALSE.
   PREC = Accurate
   EDIFF = 1E-07
   NELM = 100
   ALGO = Normal
   NCORE = 9
   ISPIN = 1
   LORBIT = 11
   EMIN = -10
   EMAX = 10
   NEDOS = 5000
   LWAVE = .FALSE.
   LCHARG = .TRUE.
   LVTOT = .TRUE.
   ADDGRID = .TRUE.

 POTCAR:    PAW_PBE Zn 06Sep2000                  
 POTCAR:    PAW_PBE In_d 06Sep2000                
 POTCAR:    PAW_PBE S 06Sep2000                   
 WARNING: For LVTOT=.TRUE., VASP.5.x writes the TOTAL local potential to the
     file LOCPOT. If you want only the Hartree contributions, use LVHAR=.TRUE.
     instead. 

 POTCAR:    PAW_PBE Zn 06Sep2000                  
   SHA256 =  501fddbd8274dd8e9725d4f3de27861d7f1e553a7e18441bc79fed8f346e7f23 Zn/POTCAR             
   COPYR  = (c) Copyright 06Sep2000 Georg Kresse                                                    
   COPYR  = This file is part of the software VASP. Any use, copying, and all other rights are regul
   COPYR  = If you do not have a valid VASP license, you may not use, copy or distribute this file. 
   VRHFIN =Zn: d10 p2                                                                               
   LEXCH  = PE                                                                                      
   EATOM  =  1748.8345 eV,  128.5357 Ry                                                             
                                                                                                    
   TITEL  = PAW_PBE Zn 06Sep2000                                                                    
   LULTRA =        F    use ultrasoft PP ?                                                          
   IUNSCR =        1    unscreen: 0-lin 1-nonlin 2-no                                               
   RPACOR =    2.000    partial core radius                                                         
   POMASS =   65.390; ZVAL   =   12.000    mass and valenz                                          
   RCORE  =    2.300    outmost cutoff radius                                                       
   RWIGS  =    2.400; RWIGS  =    1.270    wigner-seitz radius (au A)                               
   ENMAX  =  276.723; ENMIN  =  207.542 eV                                                          
   RCLOC  =    1.828    cutoff for local pot                                                        
   LCOR   =        T    correct aug charges                                                         
   LPAW   =        T    paw PP                                                                      
   EAUG   =  575.892                                                                                
   DEXC   =    0.000                                                                                
   RMAX   =    2.347    core radius for proj-oper                                                   
   RAUG   =    1.300    factor for augmentation sphere                                              
   RDEP   =    2.324    radius for radial grids                                                     
   RDEPT  =    1.788    core radius for aug-charge                                                  
                                                                                                    
   Atomic configuration                                                                             
    9 entries                                                                                       
     n  l   j            E        occ.                                                              
     1  0  0.50     -9524.6913   2.0000                                                             
     2  0  0.50     -1158.1882   2.0000                                                             
     2  1  1.50     -1003.8506   6.0000                                                             
     3  0  0.50      -129.2194   2.0000                                                             
     3  1  1.50       -83.3890   6.0000                                                             
     3  2  2.50       -10.1410  10.0000                                                             
     4  0  0.50        -5.9785   2.0000                                                             
     4  1  0.50        -4.0817   0.0000                                                             
     4  3  2.50        -1.3606   0.0000                                                             
   Description                                                                                      
     l       E           TYP  RCUT    TYP  RCUT                                                     
     2    -10.1410010     23  2.300                                                                 
     2    -11.5015836     23  2.300                                                                 
     0     -5.9785163     23  2.300                                                                 
     0      1.1858015     23  2.300                                                                 
     1     -2.7211652     23  2.300                                                                 
     1     13.2444212     23  2.300                                                                 
  local pseudopotential read in
  partial core-charges read in
  partial kinetic energy density read in
  atomic valenz-charges read in
  non local Contribution for L=           2  read in
    real space projection operators read in
  non local Contribution for L=           2  read in
    real space projection operators read in
  non local Contribution for L=           0  read in
    real space projection operators read in
  non local Contribution for L=           0  read in
    real space projection operators read in
  non local Contribution for L=           1  read in
    real space projection operators read in
  non local Contribution for L=           1  read in
    real space projection operators read in
    PAW grid and wavefunctions read in
 
   number of l-projection  operators is LMAX  =           6
   number of lm-projection operators is LMMAX =          18
 
 POTCAR:    PAW_PBE In_d 06Sep2000                
   SHA256 =  bef4eefb233e1f458c7ef2e09e39e7114bb5a6a38c7ac356915527764429c513 In_d/POTCAR           
   COPYR  = (c) Copyright 06Sep2000 Georg Kresse                                                    
   COPYR  = This file is part of the software VASP. Any use, copying, and all other rights are regul
   COPYR  = If you do not have a valid VASP license, you may not use, copy or distribute this file. 
   VRHFIN =In: s2p1                                                                                 
   LEXCH  = PE                                                                                      
   EATOM  =  1576.8302 eV,  115.8937 Ry                                                             
                                                                                                    
   TITEL  = PAW_PBE In_d 06Sep2000                                                                  
   LULTRA =        F    use ultrasoft PP ?                                                          
   IUNSCR =        1    unscreen: 0-lin 1-nonlin 2-no                                               
   RPACOR =    2.200    partial core radius                                                         
   POMASS =  114.820; ZVAL   =   13.000    mass and valenz                                          
   RCORE  =    2.500    outmost cutoff radius                                                       
   RWIGS  =    3.170; RWIGS  =    1.677    wigner-seitz radius (au A)                               
   ENMAX  =  239.211; ENMIN  =  179.409 eV                                                          
   ICORE  =        3    local potential                                                             
   LCOR   =        T    correct aug charges                                                         
   LPAW   =        T    paw PP                                                                      
   EAUG   =  449.704                                                                                
   DEXC   =    0.000                                                                                
   RMAX   =    2.552    core radius for proj-oper                                                   
   RAUG   =    1.300    factor for augmentation sphere                                              
   RDEP   =    2.630    radius for radial grids                                                     
   RDEPT  =    2.033    core radius for aug-charge                                                  
                                                                                                    
   Atomic configuration                                                                             
   12 entries                                                                                       
     n  l   j            E        occ.                                                              
     1  0  0.50    -27747.9169   2.0000                                                             
     2  0  0.50     -4154.4438   2.0000                                                             
     2  1  1.50     -3728.4305   6.0000                                                             
     3  0  0.50      -788.3680   2.0000                                                             
     3  1  1.50      -648.9215   6.0000                                                             
     3  2  2.50      -432.5893  10.0000                                                             
     4  0  0.50      -119.6363   2.0000                                                             
     4  1  1.50       -78.1086   6.0000                                                             
     4  2  2.50       -18.6227  10.0000                                                             
     5  0  0.50        -8.2107   2.0000                                                             
     5  1  0.50        -2.5185   1.0000                                                             
     4  3  2.50        -2.7212   0.0000                                                             
   Description                                                                                      
     l       E           TYP  RCUT    TYP  RCUT                                                     
     2    -18.6226981     23  2.500                                                                 
     2     -1.3605826     23  2.500                                                                 
     0     -8.2107305     23  2.500                                                                 
     0     -6.1485975     23  2.500                                                                 
     1     -2.5184867     23  2.500                                                                 
     1      3.2427302     23  2.500                                                                 
     3     -1.3605826      7  2.500                                                                 
  local pseudopotential read in
  partial core-charges read in
  partial kinetic energy density read in
  atomic valenz-charges read in
  non local Contribution for L=           2  read in
    real space projection operators read in
  non local Contribution for L=           2  read in
    real space projection operators read in
  non local Contribution for L=           0  read in
    real space projection operators read in
  non local Contribution for L=           0  read in
    real space projection operators read in
  non local Contribution for L=           1  read in
    real space projection operators read in
  non local Contribution for L=           1  read in
    real space projection operators read in
    PAW grid and wavefunctions read in
 
   number of l-projection  operators is LMAX  =           6
   number of lm-projection operators is LMMAX =          18
 
 POTCAR:    PAW_PBE S 06Sep2000                   
   SHA256 =  0fc7481fb0695f01bdc6462160264c5c84044ae9ec85a907d398b887a2bc3132 S/POTCAR              
   COPYR  = (c) Copyright 06Sep2000 Georg Kresse                                                    
   COPYR  = This file is part of the software VASP. Any use, copying, and all other rights are regul
   COPYR  = If you do not have a valid VASP license, you may not use, copy or distribute this file. 
   VRHFIN =S : s2p4                                                                                 
   LEXCH  = PE                                                                                      
   EATOM  =   276.8230 eV,   20.3459 Ry                                                             
                                                                                                    
   TITEL  = PAW_PBE S 06Sep2000                                                                     
   LULTRA =        F    use ultrasoft PP ?                                                          
   IUNSCR =        1    unscreen: 0-lin 1-nonlin 2-no                                               
   RPACOR =    1.500    partial core radius                                                         
   POMASS =   32.066; ZVAL   =    6.000    mass and valenz                                          
   RCORE  =    1.900    outmost cutoff radius                                                       
   RWIGS  =    2.200; RWIGS  =    1.164    wigner-seitz radius (au A)                               
   ENMAX  =  258.689; ENMIN  =  194.016 eV                                                          
   ICORE  =        2    local potential                                                             
   LCOR   =        T    correct aug charges                                                         
   LPAW   =        T    paw PP                                                                      
   EAUG   =  335.092                                                                                
   DEXC   =    0.000                                                                                
   RMAX   =    1.942    core radius for proj-oper                                                   
   RAUG   =    1.300    factor for augmentation sphere                                              
   RDEP   =    1.954    radius for radial grids                                                     
   RDEPT  =    1.744    core radius for aug-charge                                                  
                                                                                                    
   Atomic configuration                                                                             
    6 entries                                                                                       
     n  l   j            E        occ.                                                              
     1  0  0.50     -2405.8406   2.0000                                                             
     2  0  0.50      -211.7007   2.0000                                                             
     2  1  1.50      -156.4958   6.0000                                                             
     3  0  0.50       -17.2562   2.0000                                                             
     3  1  0.50        -7.0085   4.0000                                                             
     3  2  1.50        -6.8029   0.0000                                                             
   Description                                                                                      
     l       E           TYP  RCUT    TYP  RCUT                                                     
     0    -17.2561641     23  1.900                                                                 
     0    -15.8743224     23  1.900                                                                 
     1     -7.0085400     23  1.900                                                                 
     1     -2.7779785     23  1.900                                                                 
     2     -6.8029130     23  1.900                                                                 
  local pseudopotential read in
  partial core-charges read in
  partial kinetic energy density read in
  atomic valenz-charges read in
  non local Contribution for L=           0  read in
    real space projection operators read in
  non local Contribution for L=           0  read in
    real space projection operators read in
  non local Contribution for L=           1  read in
    real space projection operators read in
  non local Contribution for L=           1  read in
    real space projection operators read in
    PAW grid and wavefunctions read in
 
   number of l-projection  operators is LMAX  =           4
   number of lm-projection operators is LMMAX =           8
 
 -----------------------------------------------------------------------------
|                                                                             |
|               ----> ADVICE to this user running VASP <----                  |
|                                                                             |
|     You have a (more or less) 'large supercell' and for larger cells it     |
|     might be more efficient to use real-space projection operators.         |
|     Therefore, try LREAL= Auto in the INCAR file.                           |
|     Mind: For very accurate calculation, you might also keep the            |
|     reciprocal projection scheme (i.e. LREAL=.FALSE.).                      |
|                                                                             |
 -----------------------------------------------------------------------------

  PAW_PBE Zn 06Sep2000                  :
 energy of atom  1       EATOM=-1748.8345
 kinetic energy error for atom=    0.0210 (will be added to EATOM!!)
  PAW_PBE In_d 06Sep2000                :
 energy of atom  2       EATOM=-1576.8302
 kinetic energy error for atom=    0.0105 (will be added to EATOM!!)
  PAW_PBE S 06Sep2000                   :
 energy of atom  3       EATOM= -276.8230
 kinetic energy error for atom=    0.0050 (will be added to EATOM!!)
 
 
 POSCAR: Zn In2 S4
  positions in direct lattice
  velocities in cartesian coordinates
 exchange correlation table for  LEXCH =        8
   RHO(1)=    0.500       N(1)  =     2000
   RHO(2)=  100.500       N(2)  =     4000
 


--------------------------------------------------------------------------------------------------------


 ion  position               nearest neighbor table
   1  1.000  1.000  1.000-  52 2.36  30 2.36  46 2.36  42 2.36
   2  1.000  0.500  0.500-  43 2.36  29 2.36  34 2.36  53 2.36
   3  0.500  0.500  1.000-  31 2.36  45 2.36  35 2.36  56 2.36
   4  0.500  1.000  0.500-  33 2.36  44 2.36  32 2.36  51 2.36
   5  0.750  0.250  0.750-  26 2.36  38 2.36  48 2.36  49 2.36
   6  0.250  0.250  0.250-  47 2.36  54 2.36  41 2.36  25 2.36
   7  0.250  0.750  0.750-  36 2.36  39 2.36  27 2.36  50 2.36
   8  0.750  0.750  0.250-  37 2.36  28 2.36  55 2.36  40 2.36
   9  0.625  0.625  0.625-  45 2.61  44 2.61  53 2.61  48 2.61  50 2.61  40 2.61  18 3.74  19 3.74
                            23 3.74  22 3.74  17 3.74  20 3.74
  10  0.375  0.875  0.125-  46 2.61  51 2.61  35 2.61  54 2.61  37 2.61  39 2.61  15 3.74  21 3.74
                            20 3.74  16 3.74  23 3.74  14 3.74
  11  0.875  0.125  0.375-  52 2.61  33 2.61  43 2.61  47 2.61  38 2.61  55 2.61  13 3.74  16 3.74
                            22 3.74  15 3.74  19 3.74  24 3.74
  12  0.125  0.375  0.875-  42 2.61  56 2.61  34 2.61  41 2.61  36 2.61  49 2.61  14 3.74  24 3.74
                            17 3.74  13 3.74  18 3.74  21 3.74
  13  0.875  0.375  0.125-  52 2.61  31 2.61  43 2.61  41 2.61  49 2.61  28 2.61  11 3.74  16 3.74
                            22 3.74  12 3.74  18 3.74  21 3.74
  14  0.375  0.125  0.875-  56 2.61  32 2.61  42 2.61  54 2.61  26 2.61  39 2.61  12 3.74  24 3.74
                            17 3.74  16 3.74  23 3.74  10 3.74
  15  0.125  0.875  0.375-  51 2.61  46 2.61  29 2.61  47 2.61  27 2.61  55 2.61  10 3.74  21 3.74
                            20 3.74  11 3.74  19 3.74  24 3.74
  16  0.625  0.125  0.125-  31 2.61  52 2.61  33 2.61  54 2.61  26 2.61  37 2.61  22 3.74  13 3.74
                            11 3.74  14 3.74  23 3.74  10 3.74
  17  0.375  0.375  0.625-  32 2.61  34 2.61  56 2.61  50 2.61  25 2.61  48 2.61  24 3.74  14 3.74
                            12 3.74  22 3.74   9 3.74  20 3.74
  18  0.875  0.625  0.875-  53 2.61  45 2.61  30 2.61  49 2.61  36 2.61  28 2.61  19 3.74   9 3.74
                            23 3.74  13 3.74  12 3.74  21 3.74
  19  0.875  0.875  0.625-  53 2.61  30 2.61  44 2.61  38 2.61  55 2.61  27 2.61  18 3.74  23 3.74
                             9 3.74  11 3.74  24 3.74  15 3.74
  20  0.375  0.625  0.375-  35 2.61  51 2.61  29 2.61  25 2.61  40 2.61  50 2.61  21 3.74  15 3.74
                            10 3.74  22 3.74   9 3.74  17 3.74
  21  0.125  0.625  0.125-  35 2.61  46 2.61  29 2.61  41 2.61  28 2.61  36 2.61  20 3.74  15 3.74
                            10 3.74  13 3.74  12 3.74  18 3.74
  22  0.625  0.375  0.375-  31 2.61  33 2.61  43 2.61  25 2.61  40 2.61  48 2.61  16 3.74  11 3.74
                            13 3.74  20 3.74   9 3.74  17 3.74
  23  0.625  0.875  0.875-  45 2.61  44 2.61  30 2.61  26 2.61  39 2.61  37 2.61  19 3.74  18 3.74
                             9 3.74  16 3.74  14 3.74  10 3.74
  24  0.125  0.125  0.625-  42 2.61  32 2.61  34 2.61  38 2.61  47 2.61  27 2.61  17 3.74  12 3.74
                            14 3.74  19 3.74  11 3.74  15 3.74
  25  0.379  0.379  0.379-   6 2.36  22 2.61  20 2.61  17 2.61
  26  0.621  0.121  0.879-   5 2.36  23 2.61  14 2.61  16 2.61
  27  0.121  0.879  0.621-   7 2.36  15 2.61  19 2.61  24 2.61
  28  0.879  0.621  0.121-   8 2.36  18 2.61  13 2.61  21 2.61
  29  0.129  0.629  0.371-   2 2.36  15 2.61  20 2.61  21 2.61
  30  0.871  0.871  0.871-   1 2.36  19 2.61  23 2.61  18 2.61
  31  0.629  0.371  0.129-   3 2.36  22 2.61  16 2.61  13 2.61
  32  0.371  0.129  0.629-   4 2.36  17 2.61  24 2.61  14 2.61
  33  0.629  0.129  0.371-   4 2.36  11 2.61  22 2.61  16 2.61
  34  0.129  0.371  0.629-   2 2.36  12 2.61  17 2.61  24 2.61
  35  0.371  0.629  0.129-   3 2.36  20 2.61  21 2.61  10 2.61
  36  0.121  0.621  0.879-   7 2.36  12 2.61  18 2.61  21 2.61
  37  0.621  0.879  0.121-   8 2.36  23 2.61  10 2.61  16 2.61
  38  0.879  0.121  0.621-   5 2.36  19 2.61  11 2.61  24 2.61
  39  0.379  0.879  0.879-   7 2.36  23 2.61  14 2.61  10 2.61
  40  0.621  0.621  0.379-   8 2.36  20 2.61  22 2.61   9 2.61
  41  0.121  0.379  0.121-   6 2.36  12 2.61  13 2.61  21 2.61
  42  0.129  0.129  0.871-   1 2.36  12 2.61  24 2.61  14 2.61
  43  0.871  0.371  0.371-   2 2.36  11 2.61  22 2.61  13 2.61
  44  0.629  0.871  0.629-   4 2.36  23 2.61  19 2.61   9 2.61
  45  0.629  0.629  0.871-   3 2.36  23 2.61  18 2.61   9 2.61
  46  0.129  0.871  0.129-   1 2.36  15 2.61  10 2.61  21 2.61
  47  0.121  0.121  0.379-   6 2.36  15 2.61  11 2.61  24 2.61
  48  0.621  0.379  0.621-   5 2.36   9 2.61  17 2.61  22 2.61
  49  0.879  0.379  0.879-   5 2.36  18 2.61  12 2.61  13 2.61
  50  0.379  0.621  0.621-   7 2.36  17 2.61   9 2.61  20 2.61
  51  0.371  0.871  0.371-   4 2.36  15 2.61  10 2.61  20 2.61
  52  0.871  0.129  0.129-   1 2.36  13 2.61  11 2.61  16 2.61
  53  0.871  0.629  0.629-   2 2.36  19 2.61  18 2.61   9 2.61
  54  0.379  0.121  0.121-   6 2.36  14 2.61  10 2.61  16 2.61
  55  0.879  0.879  0.379-   8 2.36  15 2.61  19 2.61  11 2.61
  56  0.371  0.371  0.871-   3 2.36  12 2.61  14 2.61  17 2.61
 
  LATTYP: Found a simple cubic cell.
 ALAT       =    10.5900001526
  
  Lattice vectors:
  
 A1 = (  10.5900001526,   0.0000000000,   0.0000000000)
 A2 = (   0.0000000000,  10.5900001526,   0.0000000000)
 A3 = (   0.0000000000,   0.0000000000,  10.5900001526)


Analysis of symmetry for initial positions (statically):
=====================================================================
 Subroutine PRICEL returns following result:
 
  LATTYP: Found a face centered cubic cell.
 ALAT       =    10.5900002898
  
  Lattice vectors:
  
 A1 = (   5.2950001475,  -5.2950001422,  -0.0000000065)
 A2 = (   5.2950001547,   0.0000000000,   5.2950001451)
 A3 = (  -0.0000000072,  -5.2950001422,   5.2950000011)
 
   4 primitive cells build up your supercell.
 

 Routine SETGRP: Setting up the symmetry group for a 
 simple cubic supercell.


 Subroutine GETGRP returns: Found 24 space group operations
 (whereof 24 operations were pure point group operations)
 out of a pool of 48 trial point group operations.


The static configuration has the point symmetry T_d .


Analysis of symmetry for dynamics (positions and initial velocities):
=====================================================================
 Subroutine PRICEL returns following result:
 
  LATTYP: Found a face centered cubic cell.
 ALAT       =    10.5900002898
  
  Lattice vectors:
  
 A1 = (   5.2950001475,  -5.2950001422,  -0.0000000065)
 A2 = (   5.2950001547,   0.0000000000,   5.2950001451)
 A3 = (  -0.0000000072,  -5.2950001422,   5.2950000011)
 
   4 primitive cells build up your supercell.
 

 Routine SETGRP: Setting up the symmetry group for a 
 simple cubic supercell.


 Subroutine GETGRP returns: Found 24 space group operations
 (whereof 24 operations were pure point group operations)
 out of a pool of 48 trial point group operations.


The dynamic configuration has the point symmetry T_d .


 Subroutine INISYM returns: Found 24 space group operations
 (whereof 24 operations are pure point group operations),
 and found     4 'primitive' translations


----------------------------------------------------------------------------------------

                                     Primitive cell                                     

  volume of cell :     296.9121

  direct lattice vectors                    reciprocal lattice vectors
     5.295000148 -5.295000142 -0.000000006     0.094428705 -0.094428703 -0.094428705
     5.295000155  0.000000000  5.295000145     0.094428702  0.094428702  0.094428705
    -0.000000007 -5.295000142  5.295000001    -0.094428705 -0.094428705  0.094428705

  length of vectors
     7.488261018  7.488261025  7.488260914     0.163555313  0.163555312  0.163555315

  position of ions in fractional coordinates (direct lattice)
     0.000000026  0.999999934  0.000000004
     0.750000004  0.749999972  0.750000002
     0.374991175  0.875026504  0.374991143
     0.374991186  0.374991138  0.875026508
     0.374991177  0.374991145  0.374991144
     0.875026519  0.374991159  0.374991176
     0.621428020  0.135715994  0.621427967
     0.621428005  0.621427984  0.135716016
     0.621428012  0.621427970  0.621427994
     0.135716019  0.621427980  0.621427995
     0.128576924  0.128576893  0.614269247
     0.128576939  0.614269190  0.128576919
     0.128576944  0.128576877  0.128576923
     0.614269256  0.128576871  0.128576925

  ion indices of the primitive-cell ions
   primitive index   ion index
                 1           1
                 2           5
                 3          24
                 4          13
                 5          11
                 6          12
                 7          55
                 8          47
                 9          41
                10          54
                11          42
                12          30
                13          46
                14          52

----------------------------------------------------------------------------------------

 
 
 KPOINTS: K-Spacing Value                         

Automatic generation of k-mesh.
 Grid dimensions read from file:
 generate k-points for:   15   15   15

 Generating k-lattice:

  Cartesian coordinates                     Fractional coordinates (reciprocal lattice)
     0.006295247  0.000000000  0.000000000     0.066666667  0.000000000  0.000000000
     0.000000000  0.006295247  0.000000000     0.000000000  0.066666667  0.000000000
     0.000000000  0.000000000  0.006295247     0.000000000  0.000000000  0.066666667

  Length of vectors
     0.006295247  0.006295247  0.006295247

  Shift w.r.t. Gamma in fractional coordinates (k-lattice)
     0.000000000  0.000000000  0.000000000

 TETIRR: Found   1667 inequivalent tetrahedra from    20250
 
 Subroutine IBZKPT returns following result:
 ===========================================
 
 Found    120 irreducible k-points:
 
 Following reciprocal coordinates:
            Coordinates               Weight
  0.000000  0.000000  0.000000      1.000000
  0.066667  0.000000  0.000000      6.000000
  0.133333  0.000000  0.000000      6.000000
  0.200000  0.000000  0.000000      6.000000
  0.266667  0.000000  0.000000      6.000000
  0.333333  0.000000  0.000000      6.000000
  0.400000  0.000000  0.000000      6.000000
  0.466667  0.000000  0.000000      6.000000
  0.066667  0.066667  0.000000     12.000000
  0.133333  0.066667  0.000000     24.000000
  0.200000  0.066667  0.000000     24.000000
  0.266667  0.066667  0.000000     24.000000
  0.333333  0.066667  0.000000     24.000000
  0.400000  0.066667  0.000000     24.000000
  0.466667  0.066667  0.000000     24.000000
  0.133333  0.133333  0.000000     12.000000
  0.200000  0.133333  0.000000     24.000000
  0.266667  0.133333  0.000000     24.000000
  0.333333  0.133333  0.000000     24.000000
  0.400000  0.133333  0.000000     24.000000
  0.466667  0.133333  0.000000     24.000000
  0.200000  0.200000  0.000000     12.000000
  0.266667  0.200000  0.000000     24.000000
  0.333333  0.200000  0.000000     24.000000
  0.400000  0.200000  0.000000     24.000000
  0.466667  0.200000  0.000000     24.000000
  0.266667  0.266667  0.000000     12.000000
  0.333333  0.266667  0.000000     24.000000
  0.400000  0.266667  0.000000     24.000000
  0.466667  0.266667  0.000000     24.000000
  0.333333  0.333333  0.000000     12.000000
  0.400000  0.333333  0.000000     24.000000
  0.466667  0.333333  0.000000     24.000000
  0.400000  0.400000  0.000000     12.000000
  0.466667  0.400000  0.000000     24.000000
  0.466667  0.466667  0.000000     12.000000
  0.066667  0.066667  0.066667      8.000000
  0.133333  0.066667  0.066667     24.000000
  0.200000  0.066667  0.066667     24.000000
  0.266667  0.066667  0.066667     24.000000
  0.333333  0.066667  0.066667     24.000000
  0.400000  0.066667  0.066667     24.000000
  0.466667  0.066667  0.066667     24.000000
  0.133333  0.133333  0.066667     24.000000
  0.200000  0.133333  0.066667     48.000000
  0.266667  0.133333  0.066667     48.000000
  0.333333  0.133333  0.066667     48.000000
  0.400000  0.133333  0.066667     48.000000
  0.466667  0.133333  0.066667     48.000000
  0.200000  0.200000  0.066667     24.000000
  0.266667  0.200000  0.066667     48.000000
  0.333333  0.200000  0.066667     48.000000
  0.400000  0.200000  0.066667     48.000000
  0.466667  0.200000  0.066667     48.000000
  0.266667  0.266667  0.066667     24.000000
  0.333333  0.266667  0.066667     48.000000
  0.400000  0.266667  0.066667     48.000000
  0.466667  0.266667  0.066667     48.000000
  0.333333  0.333333  0.066667     24.000000
  0.400000  0.333333  0.066667     48.000000
  0.466667  0.333333  0.066667     48.000000
  0.400000  0.400000  0.066667     24.000000
  0.466667  0.400000  0.066667     48.000000
  0.466667  0.466667  0.066667     24.000000
  0.133333  0.133333  0.133333      8.000000
  0.200000  0.133333  0.133333     24.000000
  0.266667  0.133333  0.133333     24.000000
  0.333333  0.133333  0.133333     24.000000
  0.400000  0.133333  0.133333     24.000000
  0.466667  0.133333  0.133333     24.000000
  0.200000  0.200000  0.133333     24.000000
  0.266667  0.200000  0.133333     48.000000
  0.333333  0.200000  0.133333     48.000000
  0.400000  0.200000  0.133333     48.000000
  0.466667  0.200000  0.133333     48.000000
  0.266667  0.266667  0.133333     24.000000
  0.333333  0.266667  0.133333     48.000000
  0.400000  0.266667  0.133333     48.000000
  0.466667  0.266667  0.133333     48.000000
  0.333333  0.333333  0.133333     24.000000
  0.400000  0.333333  0.133333     48.000000
  0.466667  0.333333  0.133333     48.000000
  0.400000  0.400000  0.133333     24.000000
  0.466667  0.400000  0.133333     48.000000
  0.466667  0.466667  0.133333     24.000000
  0.200000  0.200000  0.200000      8.000000
  0.266667  0.200000  0.200000     24.000000
  0.333333  0.200000  0.200000     24.000000
  0.400000  0.200000  0.200000     24.000000
  0.466667  0.200000  0.200000     24.000000
  0.266667  0.266667  0.200000     24.000000
  0.333333  0.266667  0.200000     48.000000
  0.400000  0.266667  0.200000     48.000000
  0.466667  0.266667  0.200000     48.000000
  0.333333  0.333333  0.200000     24.000000
  0.400000  0.333333  0.200000     48.000000
  0.466667  0.333333  0.200000     48.000000
  0.400000  0.400000  0.200000     24.000000
  0.466667  0.400000  0.200000     48.000000
  0.466667  0.466667  0.200000     24.000000
  0.266667  0.266667  0.266667      8.000000
  0.333333  0.266667  0.266667     24.000000
  0.400000  0.266667  0.266667     24.000000
  0.466667  0.266667  0.266667     24.000000
  0.333333  0.333333  0.266667     24.000000
  0.400000  0.333333  0.266667     48.000000
  0.466667  0.333333  0.266667     48.000000
  0.400000  0.400000  0.266667     24.000000
  0.466667  0.400000  0.266667     48.000000
  0.466667  0.466667  0.266667     24.000000
  0.333333  0.333333  0.333333      8.000000
  0.400000  0.333333  0.333333     24.000000
  0.466667  0.333333  0.333333     24.000000
  0.400000  0.400000  0.333333     24.000000
  0.466667  0.400000  0.333333     48.000000
  0.466667  0.466667  0.333333     24.000000
  0.400000  0.400000  0.400000      8.000000
  0.466667  0.400000  0.400000     24.000000
  0.466667  0.466667  0.400000     24.000000
  0.466667  0.466667  0.466667      8.000000
 
 Following cartesian coordinates:
            Coordinates               Weight
  0.000000  0.000000  0.000000      1.000000
  0.006295  0.000000  0.000000      6.000000
  0.012590  0.000000  0.000000      6.000000
  0.018886  0.000000  0.000000      6.000000
  0.025181  0.000000  0.000000      6.000000
  0.031476  0.000000  0.000000      6.000000
  0.037771  0.000000  0.000000      6.000000
  0.044067  0.000000  0.000000      6.000000
  0.006295  0.006295  0.000000     12.000000
  0.012590  0.006295  0.000000     24.000000
  0.018886  0.006295  0.000000     24.000000
  0.025181  0.006295  0.000000     24.000000
  0.031476  0.006295  0.000000     24.000000
  0.037771  0.006295  0.000000     24.000000
  0.044067  0.006295  0.000000     24.000000
  0.012590  0.012590  0.000000     12.000000
  0.018886  0.012590  0.000000     24.000000
  0.025181  0.012590  0.000000     24.000000
  0.031476  0.012590  0.000000     24.000000
  0.037771  0.012590  0.000000     24.000000
  0.044067  0.012590  0.000000     24.000000
  0.018886  0.018886  0.000000     12.000000
  0.025181  0.018886  0.000000     24.000000
  0.031476  0.018886  0.000000     24.000000
  0.037771  0.018886  0.000000     24.000000
  0.044067  0.018886  0.000000     24.000000
  0.025181  0.025181  0.000000     12.000000
  0.031476  0.025181  0.000000     24.000000
  0.037771  0.025181  0.000000     24.000000
  0.044067  0.025181  0.000000     24.000000
  0.031476  0.031476  0.000000     12.000000
  0.037771  0.031476  0.000000     24.000000
  0.044067  0.031476  0.000000     24.000000
  0.037771  0.037771  0.000000     12.000000
  0.044067  0.037771  0.000000     24.000000
  0.044067  0.044067  0.000000     12.000000
  0.006295  0.006295  0.006295      8.000000
  0.012590  0.006295  0.006295     24.000000
  0.018886  0.006295  0.006295     24.000000
  0.025181  0.006295  0.006295     24.000000
  0.031476  0.006295  0.006295     24.000000
  0.037771  0.006295  0.006295     24.000000
  0.044067  0.006295  0.006295     24.000000
  0.012590  0.012590  0.006295     24.000000
  0.018886  0.012590  0.006295     48.000000
  0.025181  0.012590  0.006295     48.000000
  0.031476  0.012590  0.006295     48.000000
  0.037771  0.012590  0.006295     48.000000
  0.044067  0.012590  0.006295     48.000000
  0.018886  0.018886  0.006295     24.000000
  0.025181  0.018886  0.006295     48.000000
  0.031476  0.018886  0.006295     48.000000
  0.037771  0.018886  0.006295     48.000000
  0.044067  0.018886  0.006295     48.000000
  0.025181  0.025181  0.006295     24.000000
  0.031476  0.025181  0.006295     48.000000
  0.037771  0.025181  0.006295     48.000000
  0.044067  0.025181  0.006295     48.000000
  0.031476  0.031476  0.006295     24.000000
  0.037771  0.031476  0.006295     48.000000
  0.044067  0.031476  0.006295     48.000000
  0.037771  0.037771  0.006295     24.000000
  0.044067  0.037771  0.006295     48.000000
  0.044067  0.044067  0.006295     24.000000
  0.012590  0.012590  0.012590      8.000000
  0.018886  0.012590  0.012590     24.000000
  0.025181  0.012590  0.012590     24.000000
  0.031476  0.012590  0.012590     24.000000
  0.037771  0.012590  0.012590     24.000000
  0.044067  0.012590  0.012590     24.000000
  0.018886  0.018886  0.012590     24.000000
  0.025181  0.018886  0.012590     48.000000
  0.031476  0.018886  0.012590     48.000000
  0.037771  0.018886  0.012590     48.000000
  0.044067  0.018886  0.012590     48.000000
  0.025181  0.025181  0.012590     24.000000
  0.031476  0.025181  0.012590     48.000000
  0.037771  0.025181  0.012590     48.000000
  0.044067  0.025181  0.012590     48.000000
  0.031476  0.031476  0.012590     24.000000
  0.037771  0.031476  0.012590     48.000000
  0.044067  0.031476  0.012590     48.000000
  0.037771  0.037771  0.012590     24.000000
  0.044067  0.037771  0.012590     48.000000
  0.044067  0.044067  0.012590     24.000000
  0.018886  0.018886  0.018886      8.000000
  0.025181  0.018886  0.018886     24.000000
  0.031476  0.018886  0.018886     24.000000
  0.037771  0.018886  0.018886     24.000000
  0.044067  0.018886  0.018886     24.000000
  0.025181  0.025181  0.018886     24.000000
  0.031476  0.025181  0.018886     48.000000
  0.037771  0.025181  0.018886     48.000000
  0.044067  0.025181  0.018886     48.000000
  0.031476  0.031476  0.018886     24.000000
  0.037771  0.031476  0.018886     48.000000
  0.044067  0.031476  0.018886     48.000000
  0.037771  0.037771  0.018886     24.000000
  0.044067  0.037771  0.018886     48.000000
  0.044067  0.044067  0.018886     24.000000
  0.025181  0.025181  0.025181      8.000000
  0.031476  0.025181  0.025181     24.000000
  0.037771  0.025181  0.025181     24.000000
  0.044067  0.025181  0.025181     24.000000
  0.031476  0.031476  0.025181     24.000000
  0.037771  0.031476  0.025181     48.000000
  0.044067  0.031476  0.025181     48.000000
  0.037771  0.037771  0.025181     24.000000
  0.044067  0.037771  0.025181     48.000000
  0.044067  0.044067  0.025181     24.000000
  0.031476  0.031476  0.031476      8.000000
  0.037771  0.031476  0.031476     24.000000
  0.044067  0.031476  0.031476     24.000000
  0.037771  0.037771  0.031476     24.000000
  0.044067  0.037771  0.031476     48.000000
  0.044067  0.044067  0.031476     24.000000
  0.037771  0.037771  0.037771      8.000000
  0.044067  0.037771  0.037771     24.000000
  0.044067  0.044067  0.037771     24.000000
  0.044067  0.044067  0.044067      8.000000
 


--------------------------------------------------------------------------------------------------------




 Dimension of arrays:
   k-points           NKPTS =    120   k-points in BZ     NKDIM =    120   number of bands    NBANDS=    300
   number of dos      NEDOS =   5000   number of ions     NIONS =     56
   non local maximal  LDIM  =      6   non local SUM 2l+1 LMDIM =     18
   total plane-waves  NPLWV = 343000
   max r-space proj   IRMAX =      1   max aug-charges    IRDMAX=  99987
   dimension x,y,z NGX =    70 NGY =   70 NGZ =   70
   dimension x,y,z NGXF=   140 NGYF=  140 NGZF=  140
   support grid    NGXF=   280 NGYF=  280 NGZF=  280
   ions per type =               8  16  32
   NGX,Y,Z   is equivalent  to a cutoff of  10.99, 10.99, 10.99 a.u.
   NGXF,Y,Z  is equivalent  to a cutoff of  21.98, 21.98, 21.98 a.u.

 SYSTEM =  PDOS-Calculation-from-SCF               
 POSCAR =  Zn In2 S4                               

 Startparameter for this run:
   NWRITE =      2    write-flag & timer
   PREC   = accura    normal or accurate (medium, high low for compatibility)
   ISTART =      0    job   : 0-new  1-cont  2-samecut
   ICHARG =     11    charge: 1-file 2-atom 10-const
   ISPIN  =      1    spin polarized calculation?
   LNONCOLLINEAR =      F non collinear calculations
   LSORBIT =      F    spin-orbit coupling
   INIWAV =      1    electr: 0-lowe 1-rand  2-diag
   LASPH  =      F    aspherical Exc in radial PAW
 Electronic Relaxation 1
   ENCUT  =  360.0 eV  26.46 Ry    5.14 a.u.  16.38 16.38 16.38*2*pi/ulx,y,z
   ENINI  =  360.0     initial cutoff
   ENAUG  =  575.9 eV  augmentation charge cutoff
   NELM   =    100;   NELMIN=  2; NELMDL= -5     # of ELM steps 
   EDIFF  = 0.1E-06   stopping-criterion for ELM
   LREAL  =      F    real-space projection
   NLSPLINE    = F    spline interpolate recip. space projectors
   LCOMPAT=      F    compatible to vasp.4.4
   GGA_COMPAT  = T    GGA compatible to vasp.4.4-vasp.4.6
   LMAXPAW     = -100 max onsite density
   LMAXMIX     =    2 max onsite mixed and CHGCAR
   VOSKOWN=      0    Vosko Wilk Nusair interpolation
   ROPT   =    0.00000   0.00000   0.00000
 Ionic relaxation
   EDIFFG = 0.1E-05   stopping-criterion for IOM
   NSW    =      0    number of steps for IOM
   NBLOCK =      1;   KBLOCK =      1    inner block; outer block 
   IBRION =     -1    ionic relax: 0-MD 1-quasi-New 2-CG
   NFREE  =      0    steps in history (QN), initial steepest desc. (CG)
   ISIF   =      2    stress and relaxation
   IWAVPR =     10    prediction:  0-non 1-charg 2-wave 3-comb
   ISYM   =      2    0-nonsym 1-usesym 2-fastsym
   LCORR  =      T    Harris-Foulkes like correction to forces

   POTIM  = 0.5000    time-step for ionic-motion
   TEIN   =    0.0    initial temperature
   TEBEG  =    0.0;   TEEND  =   0.0 temperature during run
   SMASS  =  -3.00    Nose mass-parameter (am)
   estimated Nose-frequenzy (Omega)   =  0.10E-29 period in steps = 0.13E+47 mass=  -0.256E-26a.u.
   SCALEE = 1.0000    scale energy and forces
   NPACO  =    256;   APACO  = 10.0  distance and # of slots for P.C.
   PSTRESS=    0.0 pullay stress

  Mass of Ions in am
   POMASS =  65.39114.82 32.07
  Ionic Valenz
   ZVAL   =  12.00 13.00  6.00
  Atomic Wigner-Seitz radii
   RWIGS  =  -1.00 -1.00 -1.00
  virtual crystal weights 
   VCA    =   1.00  1.00  1.00
   NELECT =     496.0000    total number of electrons
   NUPDOWN=      -1.0000    fix difference up-down

 DOS related values:
   EMIN   = -10.00;   EMAX   = 10.00  energy-range for DOS
   EFERMI =   0.00
   ISMEAR =    -5;   SIGMA  =   0.05  broadening in eV -4-tet -1-fermi 0-gaus

 Electronic relaxation 2 (details)
   IALGO  =     38    algorithm
   LDIAG  =      T    sub-space diagonalisation (order eigenvalues)
   LSUBROT=      F    optimize rotation matrix (better conditioning)
   TURBO    =      0    0=normal 1=particle mesh
   IRESTART =      0    0=no restart 2=restart with 2 vectors
   NREBOOT  =      0    no. of reboots
   NMIN     =      0    reboot dimension
   EREF     =   0.00    reference energy to select bands
   IMIX   =      4    mixing-type and parameters
     AMIX     =   0.40;   BMIX     =  1.00
     AMIX_MAG =   1.60;   BMIX_MAG =  1.00
     AMIN     =   0.10
     WC   =   100.;   INIMIX=   1;  MIXPRE=   1;  MAXMIX= -45

 Intra band minimization:
   WEIMIN = 0.0000     energy-eigenvalue tresh-hold
   EBREAK =  0.83E-10  absolut break condition
   DEPER  =   0.30     relativ break condition  

   TIME   =   0.40     timestep for ELM

  volume/ion in A,a.u.               =      21.21       143.12
  Fermi-wavevector in a.u.,A,eV,Ry     =   1.223694  2.312446 20.373724  1.497426
  Thomas-Fermi vector in A             =   2.358795
 
 Write flags
   LWAVE        =      F    write WAVECAR
   LDOWNSAMPLE  =      F    k-point downsampling of WAVECAR
   LCHARG       =      T    write CHGCAR
   LVTOT        =      T    write LOCPOT, total local potential
   LVHAR        =      F    write LOCPOT, Hartree potential only
   LELF         =      F    write electronic localiz. function (ELF)
   LORBIT       =     11    0 simple, 1 ext, 2 COOP (PROOUT), +10 PAW based schemes


 Dipole corrections
   LMONO  =      F    monopole corrections only (constant potential shift)
   LDIPOL =      F    correct potential (dipole corrections)
   IDIPOL =      0    1-x, 2-y, 3-z, 4-all directions 
   EPSILON=  1.0000000 bulk dielectric constant

 Exchange correlation treatment:
   GGA     =    --    GGA type
   LEXCH   =     8    internal setting for exchange type
   LIBXC   =     F    Libxc                    
   VOSKOWN =     0    Vosko Wilk Nusair interpolation
   LHFCALC =     F    Hartree Fock is set to
   LHFONE  =     F    Hartree Fock one center treatment
   AEXX    =    0.0000 exact exchange contribution

 Linear response parameters
   LEPSILON=     F    determine dielectric tensor
   LRPA    =     F    only Hartree local field effects (RPA)
   LNABLA  =     F    use nabla operator in PAW spheres
   LVEL    =     F    velocity operator in full k-point grid
   CSHIFT  =0.1000    complex shift for real part using Kramers Kronig
   OMEGAMAX=  -1.0    maximum frequency
   DEG_THRESHOLD= 0.2000000E-02 threshold for treating states as degnerate
   RTIME   =   -0.100 relaxation time in fs
  (WPLASMAI=    0.000 imaginary part of plasma frequency in eV, 0.658/RTIME)
   DFIELD  = 0.0000000 0.0000000 0.0000000 field for delta impulse in time
 
  Optional k-point grid parameters
   LKPOINTS_OPT  =     F    use optional k-point grid
   KPOINTS_OPT_MODE=     1    mode for optional k-point grid
 
 Orbital magnetization related:
   ORBITALMAG=     F  switch on orbital magnetization
   LCHIMAG   =     F  perturbation theory with respect to B field
   DQ        =  0.001000  dq finite difference perturbation B field
   LLRAUG    =     F  two centre corrections for induced B field



--------------------------------------------------------------------------------------------------------


 Static calculation
 charge density and potential remain constant during run
 non-spin polarized calculation
 Variant of blocked Davidson
 Davidson routine will perform the subspace rotation
 perform sub-space diagonalisation
    after iterative eigenvector-optimisation
 no mixing
 using additional bands           52
 reciprocal scheme for non local part
 use partial core corrections
 calculate Harris-corrections to forces 
   (improved forces if not selfconsistent)
 use gradient corrections 
 WARNING: stress and forces are not correct
  (second derivative of E(xc) not defined)
 use of overlap-Matrix (Vanderbilt PP)
 Fermi weights with tetrahedron method with Bloechl corrections


--------------------------------------------------------------------------------------------------------


  energy-cutoff  :      360.00
  volume of cell :     1187.65
      direct lattice vectors                 reciprocal lattice vectors
    10.590000153  0.000000000  0.000000000     0.094428705  0.000000000  0.000000000
     0.000000000 10.590000153  0.000000000     0.000000000  0.094428705  0.000000000
     0.000000000  0.000000000 10.590000153     0.000000000  0.000000000  0.094428705

  length of vectors
    10.590000153 10.590000153 10.590000153     0.094428705  0.094428705  0.094428705


 
 k-points in units of 2pi/SCALE and weight: K-Spacing Value                         
   0.00000000  0.00000000  0.00000000       0.000
   0.00629525  0.00000000  0.00000000       0.002
   0.01259049  0.00000000  0.00000000       0.002
   0.01888574  0.00000000  0.00000000       0.002
   0.02518099  0.00000000  0.00000000       0.002
   0.03147623  0.00000000  0.00000000       0.002
   0.03777148  0.00000000  0.00000000       0.002
   0.04406673  0.00000000  0.00000000       0.002
   0.00629525  0.00629525  0.00000000       0.004
   0.01259049  0.00629525  0.00000000       0.007
   0.01888574  0.00629525  0.00000000       0.007
   0.02518099  0.00629525  0.00000000       0.007
   0.03147623  0.00629525  0.00000000       0.007
   0.03777148  0.00629525  0.00000000       0.007
   0.04406673  0.00629525  0.00000000       0.007
   0.01259049  0.01259049  0.00000000       0.004
   0.01888574  0.01259049  0.00000000       0.007
   0.02518099  0.01259049  0.00000000       0.007
   0.03147623  0.01259049  0.00000000       0.007
   0.03777148  0.01259049  0.00000000       0.007
   0.04406673  0.01259049  0.00000000       0.007
   0.01888574  0.01888574  0.00000000       0.004
   0.02518099  0.01888574  0.00000000       0.007
   0.03147623  0.01888574  0.00000000       0.007
   0.03777148  0.01888574  0.00000000       0.007
   0.04406673  0.01888574  0.00000000       0.007
   0.02518099  0.02518099  0.00000000       0.004
   0.03147623  0.02518099  0.00000000       0.007
   0.03777148  0.02518099  0.00000000       0.007
   0.04406673  0.02518099  0.00000000       0.007
   0.03147623  0.03147623  0.00000000       0.004
   0.03777148  0.03147623  0.00000000       0.007
   0.04406673  0.03147623  0.00000000       0.007
   0.03777148  0.03777148  0.00000000       0.004
   0.04406673  0.03777148  0.00000000       0.007
   0.04406673  0.04406673  0.00000000       0.004
   0.00629525  0.00629525  0.00629525       0.002
   0.01259049  0.00629525  0.00629525       0.007
   0.01888574  0.00629525  0.00629525       0.007
   0.02518099  0.00629525  0.00629525       0.007
   0.03147623  0.00629525  0.00629525       0.007
   0.03777148  0.00629525  0.00629525       0.007
   0.04406673  0.00629525  0.00629525       0.007
   0.01259049  0.01259049  0.00629525       0.007
   0.01888574  0.01259049  0.00629525       0.014
   0.02518099  0.01259049  0.00629525       0.014
   0.03147623  0.01259049  0.00629525       0.014
   0.03777148  0.01259049  0.00629525       0.014
   0.04406673  0.01259049  0.00629525       0.014
   0.01888574  0.01888574  0.00629525       0.007
   0.02518099  0.01888574  0.00629525       0.014
   0.03147623  0.01888574  0.00629525       0.014
   0.03777148  0.01888574  0.00629525       0.014
   0.04406673  0.01888574  0.00629525       0.014
   0.02518099  0.02518099  0.00629525       0.007
   0.03147623  0.02518099  0.00629525       0.014
   0.03777148  0.02518099  0.00629525       0.014
   0.04406673  0.02518099  0.00629525       0.014
   0.03147623  0.03147623  0.00629525       0.007
   0.03777148  0.03147623  0.00629525       0.014
   0.04406673  0.03147623  0.00629525       0.014
   0.03777148  0.03777148  0.00629525       0.007
   0.04406673  0.03777148  0.00629525       0.014
   0.04406673  0.04406673  0.00629525       0.007
   0.01259049  0.01259049  0.01259049       0.002
   0.01888574  0.01259049  0.01259049       0.007
   0.02518099  0.01259049  0.01259049       0.007
   0.03147623  0.01259049  0.01259049       0.007
   0.03777148  0.01259049  0.01259049       0.007
   0.04406673  0.01259049  0.01259049       0.007
   0.01888574  0.01888574  0.01259049       0.007
   0.02518099  0.01888574  0.01259049       0.014
   0.03147623  0.01888574  0.01259049       0.014
   0.03777148  0.01888574  0.01259049       0.014
   0.04406673  0.01888574  0.01259049       0.014
   0.02518099  0.02518099  0.01259049       0.007
   0.03147623  0.02518099  0.01259049       0.014
   0.03777148  0.02518099  0.01259049       0.014
   0.04406673  0.02518099  0.01259049       0.014
   0.03147623  0.03147623  0.01259049       0.007
   0.03777148  0.03147623  0.01259049       0.014
   0.04406673  0.03147623  0.01259049       0.014
   0.03777148  0.03777148  0.01259049       0.007
   0.04406673  0.03777148  0.01259049       0.014
   0.04406673  0.04406673  0.01259049       0.007
   0.01888574  0.01888574  0.01888574       0.002
   0.02518099  0.01888574  0.01888574       0.007
   0.03147623  0.01888574  0.01888574       0.007
   0.03777148  0.01888574  0.01888574       0.007
   0.04406673  0.01888574  0.01888574       0.007
   0.02518099  0.02518099  0.01888574       0.007
   0.03147623  0.02518099  0.01888574       0.014
   0.03777148  0.02518099  0.01888574       0.014
   0.04406673  0.02518099  0.01888574       0.014
   0.03147623  0.03147623  0.01888574       0.007
   0.03777148  0.03147623  0.01888574       0.014
   0.04406673  0.03147623  0.01888574       0.014
   0.03777148  0.03777148  0.01888574       0.007
   0.04406673  0.03777148  0.01888574       0.014
   0.04406673  0.04406673  0.01888574       0.007
   0.02518099  0.02518099  0.02518099       0.002
   0.03147623  0.02518099  0.02518099       0.007
   0.03777148  0.02518099  0.02518099       0.007
   0.04406673  0.02518099  0.02518099       0.007
   0.03147623  0.03147623  0.02518099       0.007
   0.03777148  0.03147623  0.02518099       0.014
   0.04406673  0.03147623  0.02518099       0.014
   0.03777148  0.03777148  0.02518099       0.007
   0.04406673  0.03777148  0.02518099       0.014
   0.04406673  0.04406673  0.02518099       0.007
   0.03147623  0.03147623  0.03147623       0.002
   0.03777148  0.03147623  0.03147623       0.007
   0.04406673  0.03147623  0.03147623       0.007
   0.03777148  0.03777148  0.03147623       0.007
   0.04406673  0.03777148  0.03147623       0.014
   0.04406673  0.04406673  0.03147623       0.007
   0.03777148  0.03777148  0.03777148       0.002
   0.04406673  0.03777148  0.03777148       0.007
   0.04406673  0.04406673  0.03777148       0.007
   0.04406673  0.04406673  0.04406673       0.002
 
 k-points in reciprocal lattice and weights: K-Spacing Value                         
   0.00000000  0.00000000  0.00000000       0.000
   0.06666667  0.00000000  0.00000000       0.002
   0.13333333  0.00000000  0.00000000       0.002
   0.20000000  0.00000000  0.00000000       0.002
   0.26666667  0.00000000  0.00000000       0.002
   0.33333333  0.00000000  0.00000000       0.002
   0.40000000  0.00000000  0.00000000       0.002
   0.46666667  0.00000000  0.00000000       0.002
   0.06666667  0.06666667  0.00000000       0.004
   0.13333333  0.06666667  0.00000000       0.007
   0.20000000  0.06666667  0.00000000       0.007
   0.26666667  0.06666667  0.00000000       0.007
   0.33333333  0.06666667  0.00000000       0.007
   0.40000000  0.06666667  0.00000000       0.007
   0.46666667  0.06666667  0.00000000       0.007
   0.13333333  0.13333333  0.00000000       0.004
   0.20000000  0.13333333  0.00000000       0.007
   0.26666667  0.13333333  0.00000000       0.007
   0.33333333  0.13333333  0.00000000       0.007
   0.40000000  0.13333333  0.00000000       0.007
   0.46666667  0.13333333  0.00000000       0.007
   0.20000000  0.20000000  0.00000000       0.004
   0.26666667  0.20000000  0.00000000       0.007
   0.33333333  0.20000000  0.00000000       0.007
   0.40000000  0.20000000  0.00000000       0.007
   0.46666667  0.20000000  0.00000000       0.007
   0.26666667  0.26666667  0.00000000       0.004
   0.33333333  0.26666667  0.00000000       0.007
   0.40000000  0.26666667  0.00000000       0.007
   0.46666667  0.26666667  0.00000000       0.007
   0.33333333  0.33333333  0.00000000       0.004
   0.40000000  0.33333333  0.00000000       0.007
   0.46666667  0.33333333  0.00000000       0.007
   0.40000000  0.40000000  0.00000000       0.004
   0.46666667  0.40000000  0.00000000       0.007
   0.46666667  0.46666667  0.00000000       0.004
   0.06666667  0.06666667  0.06666667       0.002
   0.13333333  0.06666667  0.06666667       0.007
   0.20000000  0.06666667  0.06666667       0.007
   0.26666667  0.06666667  0.06666667       0.007
   0.33333333  0.06666667  0.06666667       0.007
   0.40000000  0.06666667  0.06666667       0.007
   0.46666667  0.06666667  0.06666667       0.007
   0.13333333  0.13333333  0.06666667       0.007
   0.20000000  0.13333333  0.06666667       0.014
   0.26666667  0.13333333  0.06666667       0.014
   0.33333333  0.13333333  0.06666667       0.014
   0.40000000  0.13333333  0.06666667       0.014
   0.46666667  0.13333333  0.06666667       0.014
   0.20000000  0.20000000  0.06666667       0.007
   0.26666667  0.20000000  0.06666667       0.014
   0.33333333  0.20000000  0.06666667       0.014
   0.40000000  0.20000000  0.06666667       0.014
   0.46666667  0.20000000  0.06666667       0.014
   0.26666667  0.26666667  0.06666667       0.007
   0.33333333  0.26666667  0.06666667       0.014
   0.40000000  0.26666667  0.06666667       0.014
   0.46666667  0.26666667  0.06666667       0.014
   0.33333333  0.33333333  0.06666667       0.007
   0.40000000  0.33333333  0.06666667       0.014
   0.46666667  0.33333333  0.06666667       0.014
   0.40000000  0.40000000  0.06666667       0.007
   0.46666667  0.40000000  0.06666667       0.014
   0.46666667  0.46666667  0.06666667       0.007
   0.13333333  0.13333333  0.13333333       0.002
   0.20000000  0.13333333  0.13333333       0.007
   0.26666667  0.13333333  0.13333333       0.007
   0.33333333  0.13333333  0.13333333       0.007
   0.40000000  0.13333333  0.13333333       0.007
   0.46666667  0.13333333  0.13333333       0.007
   0.20000000  0.20000000  0.13333333       0.007
   0.26666667  0.20000000  0.13333333       0.014
   0.33333333  0.20000000  0.13333333       0.014
   0.40000000  0.20000000  0.13333333       0.014
   0.46666667  0.20000000  0.13333333       0.014
   0.26666667  0.26666667  0.13333333       0.007
   0.33333333  0.26666667  0.13333333       0.014
   0.40000000  0.26666667  0.13333333       0.014
   0.46666667  0.26666667  0.13333333       0.014
   0.33333333  0.33333333  0.13333333       0.007
   0.40000000  0.33333333  0.13333333       0.014
   0.46666667  0.33333333  0.13333333       0.014
   0.40000000  0.40000000  0.13333333       0.007
   0.46666667  0.40000000  0.13333333       0.014
   0.46666667  0.46666667  0.13333333       0.007
   0.20000000  0.20000000  0.20000000       0.002
   0.26666667  0.20000000  0.20000000       0.007
   0.33333333  0.20000000  0.20000000       0.007
   0.40000000  0.20000000  0.20000000       0.007
   0.46666667  0.20000000  0.20000000       0.007
   0.26666667  0.26666667  0.20000000       0.007
   0.33333333  0.26666667  0.20000000       0.014
   0.40000000  0.26666667  0.20000000       0.014
   0.46666667  0.26666667  0.20000000       0.014
   0.33333333  0.33333333  0.20000000       0.007
   0.40000000  0.33333333  0.20000000       0.014
   0.46666667  0.33333333  0.20000000       0.014
   0.40000000  0.40000000  0.20000000       0.007
   0.46666667  0.40000000  0.20000000       0.014
   0.46666667  0.46666667  0.20000000       0.007
   0.26666667  0.26666667  0.26666667       0.002
   0.33333333  0.26666667  0.26666667       0.007
   0.40000000  0.26666667  0.26666667       0.007
   0.46666667  0.26666667  0.26666667       0.007
   0.33333333  0.33333333  0.26666667       0.007
   0.40000000  0.33333333  0.26666667       0.014
   0.46666667  0.33333333  0.26666667       0.014
   0.40000000  0.40000000  0.26666667       0.007
   0.46666667  0.40000000  0.26666667       0.014
   0.46666667  0.46666667  0.26666667       0.007
   0.33333333  0.33333333  0.33333333       0.002
   0.40000000  0.33333333  0.33333333       0.007
   0.46666667  0.33333333  0.33333333       0.007
   0.40000000  0.40000000  0.33333333       0.007
   0.46666667  0.40000000  0.33333333       0.014
   0.46666667  0.46666667  0.33333333       0.007
   0.40000000  0.40000000  0.40000000       0.002
   0.46666667  0.40000000  0.40000000       0.007
   0.46666667  0.46666667  0.40000000       0.007
   0.46666667  0.46666667  0.46666667       0.002
 
 position of ions in fractional coordinates (direct lattice) 
   1.00000000  1.00000000  1.00000000
   1.00000000  0.50000000  0.50000000
   0.50000000  0.50000000  1.00000000
   0.50000000  1.00000000  0.50000000
   0.75000000  0.25000000  0.75000000
   0.25000000  0.25000000  0.25000000
   0.25000000  0.75000000  0.75000000
   0.75000000  0.75000000  0.25000000
   0.62500882  0.62500882  0.62500883
   0.37499116  0.87499118  0.12500884
   0.87499117  0.12500884  0.37499116
   0.12500884  0.37499116  0.87499117
   0.87499118  0.37499116  0.12500884
   0.37499116  0.12500884  0.87499118
   0.12500884  0.87499117  0.37499116
   0.62500883  0.12500884  0.12500884
   0.37499116  0.37499116  0.62500883
   0.87499117  0.62500882  0.87499117
   0.87499117  0.87499117  0.62500883
   0.37499116  0.62500882  0.37499116
   0.12500884  0.62500883  0.12500884
   0.62500882  0.37499116  0.37499116
   0.62500883  0.87499118  0.87499117
   0.12500884  0.12500884  0.62500883
   0.37857201  0.37857201  0.37857201
   0.62142798  0.12142799  0.87857202
   0.12142800  0.87857202  0.62142798
   0.87857202  0.62142798  0.12142800
   0.12857691  0.62857693  0.37142309
   0.87142308  0.87142308  0.87142308
   0.62857692  0.37142309  0.12857691
   0.37142309  0.12857691  0.62857693
   0.62857693  0.12857691  0.37142309
   0.12857691  0.37142309  0.62857693
   0.37142309  0.62857693  0.12857691
   0.12142800  0.62142798  0.87857201
   0.62142798  0.87857201  0.12142799
   0.87857202  0.12142799  0.62142798
   0.37857201  0.87857202  0.87857202
   0.62142798  0.62142798  0.37857200
   0.12142799  0.37857200  0.12142799
   0.12857691  0.12857692  0.87142307
   0.87142307  0.37142309  0.37142309
   0.62857692  0.87142308  0.62857692
   0.62857692  0.62857692  0.87142308
   0.12857691  0.87142308  0.12857691
   0.12142800  0.12142799  0.37857200
   0.62142798  0.37857201  0.62142798
   0.87857202  0.37857201  0.87857202
   0.37857200  0.62142798  0.62142798
   0.37142308  0.87142307  0.37142309
   0.87142308  0.12857691  0.12857691
   0.87142308  0.62857692  0.62857692
   0.37857201  0.12142799  0.12142799
   0.87857202  0.87857202  0.37857200
   0.37142309  0.37142309  0.87142307
 
 position of ions in cartesian coordinates  (Angst):
  10.59000011 10.59000012 10.59000011
  10.59000012  5.29500011  5.29500011
   5.29500011  5.29500011 10.59000011
   5.29500011 10.59000012  5.29500011
   7.94250011  2.64750004  7.94250012
   2.64750004  2.64750003  2.64750004
   2.64750004  7.94250011  7.94250012
   7.94250011  7.94250011  2.64750004
   6.61884354  6.61884354  6.61884355
   3.97115642  9.26615668  1.32384366
   9.26615667  1.32384364  3.97115642
   1.32384365  3.97115641  9.26615667
   9.26615668  3.97115642  1.32384364
   3.97115643  1.32384366  9.26615668
   1.32384366  9.26615667  3.97115642
   6.61884355  1.32384365  1.32384364
   3.97115643  3.97115643  6.61884355
   9.26615667  6.61884355  9.26615666
   9.26615667  9.26615667  6.61884356
   3.97115643  6.61884355  3.97115643
   1.32384366  6.61884356  1.32384366
   6.61884353  3.97115644  3.97115644
   6.61884356  9.26615668  9.26615667
   1.32384365  1.32384366  6.61884357
   4.00907765  4.00907761  4.00907762
   6.58092241  1.28592247  9.30407779
   1.28592250  9.30407781  6.58092238
   9.30407779  6.58092241  1.28592249
   1.36162952  6.65662977  3.93337062
   9.22837054  9.22837057  9.22837053
   6.65662972  3.93337059  1.36162952
   3.93337057  1.36162953  6.65662975
   6.65662974  1.36162949  3.93337060
   1.36162951  3.93337060  6.65662977
   3.93337058  6.65662974  1.36162954
   1.28592249  6.58092236  9.30407777
   6.58092239  9.30407775  1.28592248
   9.30407781  1.28592247  6.58092241
   4.00907760  9.30407783  9.30407781
   6.58092238  6.58092239  4.00907755
   1.28592246  4.00907756  1.28592242
   1.36162950  1.36162956  9.22837048
   9.22837049  3.93337057  3.93337060
   6.65662968  9.22837057  6.65662970
   6.65662968  6.65662971  9.22837058
   1.36162953  9.22837052  1.36162954
   1.28592250  1.28592244  4.00907757
   6.58092239  4.00907760  6.58092240
   9.30407786  4.00907760  9.30407781
   4.00907759  6.58092237  6.58092240
   3.93337051  9.22837046  3.93337055
   9.22837051  1.36162951  1.36162951
   9.22837058  6.65662971  6.65662970
   4.00907759  1.28592248  1.28592248
   9.30407784  9.30407780  4.00907759
   3.93337054  3.93337056  9.22837049
 


--------------------------------------------------------------------------------------------------------


 k-point   1 :   0.0000 0.0000 0.0000  plane waves:   18349
 k-point   2 :   0.0667 0.0000 0.0000  plane waves:   18445
 k-point   3 :   0.1333 0.0000 0.0000  plane waves:   18421
 k-point   4 :   0.2000 0.0000 0.0000  plane waves:   18449
 k-point   5 :   0.2667 0.0000 0.0000  plane waves:   18461
 k-point   6 :   0.3333 0.0000 0.0000  plane waves:   18441
 k-point   7 :   0.4000 0.0000 0.0000  plane waves:   18428
 k-point   8 :   0.4667 0.0000 0.0000  plane waves:   18424
 k-point   9 :   0.0667 0.0667 0.0000  plane waves:   18461
 k-point  10 :   0.1333 0.0667 0.0000  plane waves:   18431
 k-point  11 :   0.2000 0.0667 0.0000  plane waves:   18447
 k-point  12 :   0.2667 0.0667 0.0000  plane waves:   18444
 k-point  13 :   0.3333 0.0667 0.0000  plane waves:   18446
 k-point  14 :   0.4000 0.0667 0.0000  plane waves:   18416
 k-point  15 :   0.4667 0.0667 0.0000  plane waves:   18418
 k-point  16 :   0.1333 0.1333 0.0000  plane waves:   18413
 k-point  17 :   0.2000 0.1333 0.0000  plane waves:   18439
 k-point  18 :   0.2667 0.1333 0.0000  plane waves:   18423
 k-point  19 :   0.3333 0.1333 0.0000  plane waves:   18433
 k-point  20 :   0.4000 0.1333 0.0000  plane waves:   18439
 k-point  21 :   0.4667 0.1333 0.0000  plane waves:   18432
 k-point  22 :   0.2000 0.2000 0.0000  plane waves:   18435
 k-point  23 :   0.2667 0.2000 0.0000  plane waves:   18441
 k-point  24 :   0.3333 0.2000 0.0000  plane waves:   18407
 k-point  25 :   0.4000 0.2000 0.0000  plane waves:   18440
 k-point  26 :   0.4667 0.2000 0.0000  plane waves:   18426
 k-point  27 :   0.2667 0.2667 0.0000  plane waves:   18417
 k-point  28 :   0.3333 0.2667 0.0000  plane waves:   18413
 k-point  29 :   0.4000 0.2667 0.0000  plane waves:   18405
 k-point  30 :   0.4667 0.2667 0.0000  plane waves:   18410
 k-point  31 :   0.3333 0.3333 0.0000  plane waves:   18433
 k-point  32 :   0.4000 0.3333 0.0000  plane waves:   18414
 k-point  33 :   0.4667 0.3333 0.0000  plane waves:   18418
 k-point  34 :   0.4000 0.4000 0.0000  plane waves:   18405
 k-point  35 :   0.4667 0.4000 0.0000  plane waves:   18434
 k-point  36 :   0.4667 0.4667 0.0000  plane waves:   18434
 k-point  37 :   0.0667 0.0667 0.0667  plane waves:   18448
 k-point  38 :   0.1333 0.0667 0.0667  plane waves:   18432
 k-point  39 :   0.2000 0.0667 0.0667  plane waves:   18439
 k-point  40 :   0.2667 0.0667 0.0667  plane waves:   18440
 k-point  41 :   0.3333 0.0667 0.0667  plane waves:   18432
 k-point  42 :   0.4000 0.0667 0.0667  plane waves:   18414
 k-point  43 :   0.4667 0.0667 0.0667  plane waves:   18428
 k-point  44 :   0.1333 0.1333 0.0667  plane waves:   18429
 k-point  45 :   0.2000 0.1333 0.0667  plane waves:   18437
 k-point  46 :   0.2667 0.1333 0.0667  plane waves:   18429
 k-point  47 :   0.3333 0.1333 0.0667  plane waves:   18422
 k-point  48 :   0.4000 0.1333 0.0667  plane waves:   18428
 k-point  49 :   0.4667 0.1333 0.0667  plane waves:   18435
 k-point  50 :   0.2000 0.2000 0.0667  plane waves:   18422
 k-point  51 :   0.2667 0.2000 0.0667  plane waves:   18436
 k-point  52 :   0.3333 0.2000 0.0667  plane waves:   18410
 k-point  53 :   0.4000 0.2000 0.0667  plane waves:   18424
 k-point  54 :   0.4667 0.2000 0.0667  plane waves:   18428
 k-point  55 :   0.2667 0.2667 0.0667  plane waves:   18418
 k-point  56 :   0.3333 0.2667 0.0667  plane waves:   18420
 k-point  57 :   0.4000 0.2667 0.0667  plane waves:   18405
 k-point  58 :   0.4667 0.2667 0.0667  plane waves:   18413
 k-point  59 :   0.3333 0.3333 0.0667  plane waves:   18411
 k-point  60 :   0.4000 0.3333 0.0667  plane waves:   18418
 k-point  61 :   0.4667 0.3333 0.0667  plane waves:   18424
 k-point  62 :   0.4000 0.4000 0.0667  plane waves:   18417
 k-point  63 :   0.4667 0.4000 0.0667  plane waves:   18435
 k-point  64 :   0.4667 0.4667 0.0667  plane waves:   18435
 k-point  65 :   0.1333 0.1333 0.1333  plane waves:   18436
 k-point  66 :   0.2000 0.1333 0.1333  plane waves:   18436
 k-point  67 :   0.2667 0.1333 0.1333  plane waves:   18417
 k-point  68 :   0.3333 0.1333 0.1333  plane waves:   18416
 k-point  69 :   0.4000 0.1333 0.1333  plane waves:   18438
 k-point  70 :   0.4667 0.1333 0.1333  plane waves:   18437
 k-point  71 :   0.2000 0.2000 0.1333  plane waves:   18425
 k-point  72 :   0.2667 0.2000 0.1333  plane waves:   18428
 k-point  73 :   0.3333 0.2000 0.1333  plane waves:   18413
 k-point  74 :   0.4000 0.2000 0.1333  plane waves:   18401
 k-point  75 :   0.4667 0.2000 0.1333  plane waves:   18430
 k-point  76 :   0.2667 0.2667 0.1333  plane waves:   18415
 k-point  77 :   0.3333 0.2667 0.1333  plane waves:   18428
 k-point  78 :   0.4000 0.2667 0.1333  plane waves:   18422
 k-point  79 :   0.4667 0.2667 0.1333  plane waves:   18430
 k-point  80 :   0.3333 0.3333 0.1333  plane waves:   18422
 k-point  81 :   0.4000 0.3333 0.1333  plane waves:   18416
 k-point  82 :   0.4667 0.3333 0.1333  plane waves:   18433
 k-point  83 :   0.4000 0.4000 0.1333  plane waves:   18412
 k-point  84 :   0.4667 0.4000 0.1333  plane waves:   18424
 k-point  85 :   0.4667 0.4667 0.1333  plane waves:   18412
 k-point  86 :   0.2000 0.2000 0.2000  plane waves:   18412
 k-point  87 :   0.2667 0.2000 0.2000  plane waves:   18412
 k-point  88 :   0.3333 0.2000 0.2000  plane waves:   18418
 k-point  89 :   0.4000 0.2000 0.2000  plane waves:   18430
 k-point  90 :   0.4667 0.2000 0.2000  plane waves:   18423
 k-point  91 :   0.2667 0.2667 0.2000  plane waves:   18434
 k-point  92 :   0.3333 0.2667 0.2000  plane waves:   18415
 k-point  93 :   0.4000 0.2667 0.2000  plane waves:   18416
 k-point  94 :   0.4667 0.2667 0.2000  plane waves:   18433
 k-point  95 :   0.3333 0.3333 0.2000  plane waves:   18429
 k-point  96 :   0.4000 0.3333 0.2000  plane waves:   18427
 k-point  97 :   0.4667 0.3333 0.2000  plane waves:   18398
 k-point  98 :   0.4000 0.4000 0.2000  plane waves:   18418
 k-point  99 :   0.4667 0.4000 0.2000  plane waves:   18395
 k-point 100 :   0.4667 0.4667 0.2000  plane waves:   18420
 k-point 101 :   0.2667 0.2667 0.2667  plane waves:   18433
 k-point 102 :   0.3333 0.2667 0.2667  plane waves:   18424
 k-point 103 :   0.4000 0.2667 0.2667  plane waves:   18424
 k-point 104 :   0.4667 0.2667 0.2667  plane waves:   18416
 k-point 105 :   0.3333 0.3333 0.2667  plane waves:   18422
 k-point 106 :   0.4000 0.3333 0.2667  plane waves:   18424
 k-point 107 :   0.4667 0.3333 0.2667  plane waves:   18399
 k-point 108 :   0.4000 0.4000 0.2667  plane waves:   18413
 k-point 109 :   0.4667 0.4000 0.2667  plane waves:   18406
 k-point 110 :   0.4667 0.4667 0.2667  plane waves:   18404
 k-point 111 :   0.3333 0.3333 0.3333  plane waves:   18409
 k-point 112 :   0.4000 0.3333 0.3333  plane waves:   18411
 k-point 113 :   0.4667 0.3333 0.3333  plane waves:   18392
 k-point 114 :   0.4000 0.4000 0.3333  plane waves:   18400
 k-point 115 :   0.4667 0.4000 0.3333  plane waves:   18374
 k-point 116 :   0.4667 0.4667 0.3333  plane waves:   18395
 k-point 117 :   0.4000 0.4000 0.4000  plane waves:   18388
 k-point 118 :   0.4667 0.4000 0.4000  plane waves:   18355
 k-point 119 :   0.4667 0.4667 0.4000  plane waves:   18361
 k-point 120 :   0.4667 0.4667 0.4667  plane waves:   18384

 maximum and minimum number of plane-waves per node :      2084     2020

 maximum number of plane-waves:     18461
 maximum index in each direction: 
   IXMAX=   16   IYMAX=   16   IZMAX=   16
   IXMIN=  -16   IYMIN=  -16   IZMIN=  -16


 parallel 3D FFT for wavefunctions:
    minimum data exchange during FFTs selected (reduces bandwidth)
 parallel 3D FFT for charge:
    minimum data exchange during FFTs selected (reduces bandwidth)


 total amount of memory used by VASP MPI-rank0   483632. kBytes
=======================================================================

   base      :      30000. kBytes
   nonl-proj :     109058. kBytes
   fftplans  :      23967. kBytes
   grid      :      10035. kBytes
   one-center:        108. kBytes
   wavefun   :     310464. kBytes
 
     INWAV:  cpu time      0.0000: real time      0.0002
 initial charge density was supplied:
 number of electron     495.9999385 magnetization 
 keeping initial charge density in first step


--------------------------------------------------------------------------------------------------------


 Maximum index for augmentation-charges         2561 (set IRDMAX)


--------------------------------------------------------------------------------------------------------


 First call to EWALD:  gamma=   0.167
 Maximum number of real-space cells 3x 3x 3
 Maximum number of reciprocal cells 3x 3x 3

    FEWALD:  cpu time      0.0030: real time      0.0030


--------------------------------------- Iteration      1(   1)  ---------------------------------------


    POTLOK:  cpu time      0.0737: real time      0.0741
    SETDIJ:  cpu time      0.0938: real time      0.0942
     EDDAV:  cpu time    122.6929: real time    123.2263
 BZINTS: Fermi energy:   29.223439;  496.000000 electrons
         Band energy: 0.359046E+04;  BLOECHL correction:   -0.062518
       DOS:  cpu time      2.8815: real time      2.8908
    --------------------------------------------
      LOOP:  cpu time    125.7420: real time    126.2855

 eigenvalue-minimisations  : 72000
 total energy-change (2. order) : 0.5127555E+04  (-0.1683722E+05)
 number of electron     495.9999385 magnetization 
 augmentation part      495.9999385 magnetization 

 Free energy of the ion-electron system (eV)
  ---------------------------------------------------
  alpha Z        PSCENC =      1248.66653079
  Ewald energy   TEWEN  =    -33546.08817517
  -Hartree energ DENC   =    -14621.74617224
  -exchange      EXHF   =         0.00000000
  -V(xc)+E(xc)   XCENC  =      1532.49554735
  PAW double counting   =     65710.92680874   -66864.95568780
  entropy T*S    EENTRO =         0.00000000
  eigenvalues    EBANDS =      3590.45709949
  atomic energy  EATOM  =     48077.79870914
  Solvation  Ediel_sol  =         0.00000000
  ---------------------------------------------------
  free energy    TOTEN  =      5127.55466030 eV

  energy without entropy =     5127.55466030  energy(sigma->0) =     5127.55466030


--------------------------------------------------------------------------------------------------------




--------------------------------------- Iteration      1(   2)  ---------------------------------------


     EDDAV:  cpu time    129.0165: real time    129.4752
 BZINTS: Fermi energy:   12.375866;  496.000000 electrons
         Band energy:-0.708070E+03;  BLOECHL correction:   -0.028514
       DOS:  cpu time      2.9201: real time      2.9287
    --------------------------------------------
      LOOP:  cpu time    131.9365: real time    132.4039

 eigenvalue-minimisations  : 72000
 total energy-change (2. order) :-0.4298527E+04  (-0.4167525E+04)
 number of electron     495.9999385 magnetization 
 augmentation part      495.9999385 magnetization 

 Free energy of the ion-electron system (eV)
  ---------------------------------------------------
  alpha Z        PSCENC =      1248.66653079
  Ewald energy   TEWEN  =    -33546.08817517
  -Hartree energ DENC   =    -14621.74617224
  -exchange      EXHF   =         0.00000000
  -V(xc)+E(xc)   XCENC  =      1532.49554735
  PAW double counting   =     65710.92680874   -66864.95568780
  entropy T*S    EENTRO =         0.00000000
  eigenvalues    EBANDS =      -708.06958146
  atomic energy  EATOM  =     48077.79870914
  Solvation  Ediel_sol  =         0.00000000
  ---------------------------------------------------
  free energy    TOTEN  =       829.02797935 eV

  energy without entropy =      829.02797935  energy(sigma->0) =      829.02797935


--------------------------------------------------------------------------------------------------------




--------------------------------------- Iteration      1(   3)  ---------------------------------------


     EDDAV:  cpu time    133.9907: real time    134.4330
 BZINTS: Fermi energy:    5.660506;  496.000000 electrons
         Band energy:-0.164576E+04;  BLOECHL correction:   -0.000000
       DOS:  cpu time      2.5769: real time      2.5845
    --------------------------------------------
      LOOP:  cpu time    136.5675: real time    137.0175

 eigenvalue-minimisations  : 81040
 total energy-change (2. order) :-0.9376897E+03  (-0.8754254E+03)
 number of electron     495.9999385 magnetization 
 augmentation part      495.9999385 magnetization 

 Free energy of the ion-electron system (eV)
  ---------------------------------------------------
  alpha Z        PSCENC =      1248.66653079
  Ewald energy   TEWEN  =    -33546.08817517
  -Hartree energ DENC   =    -14621.74617224
  -exchange      EXHF   =         0.00000000
  -V(xc)+E(xc)   XCENC  =      1532.49554735
  PAW double counting   =     65710.92680874   -66864.95568780
  entropy T*S    EENTRO =         0.00000000
  eigenvalues    EBANDS =     -1645.75932356
  atomic energy  EATOM  =     48077.79870914
  Solvation  Ediel_sol  =         0.00000000
  ---------------------------------------------------
  free energy    TOTEN  =      -108.66176275 eV

  energy without entropy =     -108.66176275  energy(sigma->0) =     -108.66176275


--------------------------------------------------------------------------------------------------------




--------------------------------------- Iteration      1(   4)  ---------------------------------------


     EDDAV:  cpu time    143.9966: real time    144.4756
 BZINTS: Fermi energy:    4.299802;  496.000000 electrons
         Band energy:-0.174844E+04;  BLOECHL correction:   -0.000000
       DOS:  cpu time      2.6801: real time      2.6899
    --------------------------------------------
      LOOP:  cpu time    146.6768: real time    147.1654

 eigenvalue-minimisations  : 90008
 total energy-change (2. order) :-0.1026827E+03  (-0.1006044E+03)
 number of electron     495.9999385 magnetization 
 augmentation part      495.9999385 magnetization 

 Free energy of the ion-electron system (eV)
  ---------------------------------------------------
  alpha Z        PSCENC =      1248.66653079
  Ewald energy   TEWEN  =    -33546.08817517
  -Hartree energ DENC   =    -14621.74617224
  -exchange      EXHF   =         0.00000000
  -V(xc)+E(xc)   XCENC  =      1532.49554735
  PAW double counting   =     65710.92680874   -66864.95568780
  entropy T*S    EENTRO =         0.00000000
  eigenvalues    EBANDS =     -1748.44200226
  atomic energy  EATOM  =     48077.79870914
  Solvation  Ediel_sol  =         0.00000000
  ---------------------------------------------------
  free energy    TOTEN  =      -211.34444144 eV

  energy without entropy =     -211.34444144  energy(sigma->0) =     -211.34444144


[...]
  Fock        0.00000     0.00000     0.00000     0.00000     0.00000     0.00000
  -------------------------------------------------------------------------------------
  Total      22.50343    22.50343    22.50343     0.00000    -0.00000     0.00000
  in kB      30.35788    30.35788    30.35788     0.00000    -0.00000     0.00000
  external pressure =       30.36 kB  Pullay stress =        0.00 kB


 VOLUME and BASIS-vectors are now :
 -----------------------------------------------------------------------------
  energy-cutoff  :      360.00
  volume of cell :     1187.65
      direct lattice vectors                 reciprocal lattice vectors
    10.590000153  0.000000000  0.000000000     0.094428705  0.000000000  0.000000000
     0.000000000 10.590000153  0.000000000     0.000000000  0.094428705  0.000000000
     0.000000000  0.000000000 10.590000153     0.000000000  0.000000000  0.094428705

  length of vectors
    10.590000153 10.590000153 10.590000153     0.094428705  0.094428705  0.094428705


 FORCES acting on ions
    electron-ion (+dipol)            ewald-force                    non-local-force                 convergence-correction
 -----------------------------------------------------------------------------------------------
   0.173E-04 0.171E-04 0.158E-04   -.166E-04 -.350E-04 -.261E-04   0.170E-17 0.455E-18 -.601E-18   -.120E-03 -.694E-04 -.105E-03
   0.168E-04 -.174E-04 -.167E-04   -.271E-04 0.144E-04 0.103E-04   -.797E-18 0.938E-18 0.117E-18   -.854E-04 0.109E-03 0.120E-03
   -.174E-04 -.187E-04 0.145E-04   0.187E-04 0.203E-04 -.268E-04   -.164E-17 0.267E-18 -.710E-18   0.104E-03 0.905E-04 -.117E-03
   -.182E-04 0.156E-04 -.180E-04   0.137E-04 -.331E-04 0.159E-04   -.179E-17 -.197E-17 -.598E-18   0.117E-03 -.746E-04 0.906E-04
   -.774E-06 0.221E-05 0.150E-05   0.390E-05 0.781E-05 0.149E-06   0.602E-18 -.191E-17 0.494E-19   -.233E-04 -.122E-04 0.163E-04
   0.137E-05 0.231E-05 0.513E-06   -.250E-05 0.163E-04 0.986E-05   -.107E-17 -.493E-17 -.394E-18   0.124E-04 -.309E-04 -.580E-05
   0.112E-05 -.150E-07 0.261E-06   0.101E-05 0.980E-05 0.907E-05   -.131E-18 -.315E-17 0.522E-18   0.134E-04 -.872E-05 -.315E-05
   -.378E-06 0.154E-05 0.185E-05   0.820E-05 0.568E-05 0.886E-05   -.949E-18 -.151E-17 -.120E-17   -.224E-04 -.495E-05 -.855E-06
   0.997E-01 0.997E-01 0.997E-01   -.937E-01 -.937E-01 -.937E-01   0.257E-02 0.257E-02 0.257E-02   -.106E-01 -.106E-01 -.106E-01
   -.997E-01 -.997E-01 0.997E-01   0.938E-01 0.938E-01 -.938E-01   -.257E-02 -.257E-02 0.257E-02   0.101E-01 0.105E-01 -.101E-01
   -.997E-01 0.997E-01 -.997E-01   0.938E-01 -.938E-01 0.938E-01   -.257E-02 0.257E-02 -.257E-02   0.105E-01 -.102E-01 0.101E-01
   0.997E-01 -.997E-01 -.997E-01   -.938E-01 0.938E-01 0.938E-01   0.257E-02 -.257E-02 -.257E-02   -.101E-01 0.101E-01 0.105E-01
   -.997E-01 -.997E-01 0.997E-01   0.938E-01 0.938E-01 -.938E-01   -.257E-02 -.257E-02 0.257E-02   0.106E-01 0.101E-01 -.102E-01
   -.997E-01 0.997E-01 -.997E-01   0.938E-01 -.938E-01 0.938E-01   -.257E-02 0.257E-02 -.257E-02   0.102E-01 -.101E-01 0.105E-01
   0.997E-01 -.997E-01 -.997E-01   -.938E-01 0.938E-01 0.938E-01   0.257E-02 -.257E-02 -.257E-02   -.101E-01 0.105E-01 0.101E-01
   0.997E-01 0.997E-01 0.997E-01   -.938E-01 -.938E-01 -.938E-01   0.257E-02 0.257E-02 0.257E-02   -.105E-01 -.101E-01 -.102E-01
   -.997E-01 -.997E-01 0.997E-01   0.938E-01 0.938E-01 -.938E-01   -.257E-02 -.257E-02 0.257E-02   0.102E-01 0.102E-01 -.105E-01
   -.997E-01 0.997E-01 -.997E-01   0.937E-01 -.937E-01 0.937E-01   -.257E-02 0.257E-02 -.257E-02   0.105E-01 -.106E-01 0.105E-01
   -.997E-01 -.997E-01 0.997E-01   0.937E-01 0.937E-01 -.937E-01   -.257E-02 -.257E-02 0.257E-02   0.106E-01 0.105E-01 -.105E-01
   -.997E-01 0.997E-01 -.997E-01   0.938E-01 -.938E-01 0.938E-01   -.257E-02 0.257E-02 -.257E-02   0.102E-01 -.106E-01 0.102E-01
   0.997E-01 0.997E-01 0.997E-01   -.938E-01 -.938E-01 -.938E-01   0.257E-02 0.257E-02 0.257E-02   -.101E-01 -.105E-01 -.101E-01
   0.997E-01 -.997E-01 -.997E-01   -.937E-01 0.938E-01 0.938E-01   0.257E-02 -.257E-02 -.257E-02   -.106E-01 0.102E-01 0.102E-01
   0.997E-01 -.997E-01 -.997E-01   -.937E-01 0.937E-01 0.937E-01   0.257E-02 -.257E-02 -.257E-02   -.105E-01 0.106E-01 0.105E-01
   0.997E-01 0.997E-01 0.997E-01   -.938E-01 -.938E-01 -.938E-01   0.257E-02 0.257E-02 0.257E-02   -.101E-01 -.101E-01 -.105E-01
   0.385E+02 0.385E+02 0.385E+02   -.379E+02 -.379E+02 -.379E+02   -.605E+00 -.605E+00 -.605E+00   0.189E-02 0.188E-02 0.188E-02
   -.385E+02 -.385E+02 0.385E+02   0.379E+02 0.379E+02 -.379E+02   0.605E+00 0.605E+00 -.605E+00   -.190E-02 -.187E-02 0.190E-02
   -.385E+02 0.385E+02 -.385E+02   0.379E+02 -.379E+02 0.379E+02   0.605E+00 -.605E+00 0.605E+00   -.187E-02 0.190E-02 -.191E-02
   0.385E+02 -.385E+02 -.385E+02   -.379E+02 0.379E+02 0.379E+02   -.605E+00 0.605E+00 0.605E+00   0.189E-02 -.190E-02 -.187E-02
   0.386E+02 0.386E+02 -.386E+02   -.379E+02 -.379E+02 0.379E+02   -.607E+00 -.607E+00 0.607E+00   -.149E-02 -.150E-02 0.150E-02
   -.386E+02 -.386E+02 -.386E+02   0.379E+02 0.379E+02 0.379E+02   0.607E+00 0.607E+00 0.607E+00   0.153E-02 0.154E-02 0.153E-02
   0.386E+02 -.386E+02 0.386E+02   -.379E+02 0.379E+02 -.379E+02   -.607E+00 0.607E+00 -.607E+00   -.152E-02 0.150E-02 -.149E-02
   -.386E+02 0.386E+02 0.386E+02   0.379E+02 -.379E+02 -.379E+02   0.607E+00 -.607E+00 -.607E+00   0.149E-02 -.149E-02 -.151E-02
   0.386E+02 0.386E+02 -.386E+02   -.379E+02 -.379E+02 0.379E+02   -.607E+00 -.607E+00 0.607E+00   -.152E-02 -.149E-02 0.150E-02
   0.386E+02 -.386E+02 0.386E+02   -.379E+02 0.379E+02 -.379E+02   -.607E+00 0.607E+00 -.607E+00   -.149E-02 0.150E-02 -.150E-02
   -.386E+02 0.386E+02 0.386E+02   0.379E+02 -.379E+02 -.379E+02   0.607E+00 -.607E+00 -.607E+00   0.150E-02 -.151E-02 -.148E-02
   -.385E+02 -.385E+02 0.385E+02   0.379E+02 0.379E+02 -.379E+02   0.605E+00 0.605E+00 -.605E+00   -.187E-02 -.191E-02 0.189E-02
   -.385E+02 0.385E+02 -.385E+02   0.379E+02 -.379E+02 0.379E+02   0.605E+00 -.605E+00 0.605E+00   -.191E-02 0.189E-02 -.187E-02
   0.385E+02 -.385E+02 -.385E+02   -.379E+02 0.379E+02 0.379E+02   -.605E+00 0.605E+00 0.605E+00   0.190E-02 -.187E-02 -.190E-02
   0.385E+02 0.385E+02 0.385E+02   -.379E+02 -.379E+02 -.379E+02   -.605E+00 -.605E+00 -.605E+00   0.187E-02 0.190E-02 0.190E-02
   -.385E+02 -.385E+02 0.385E+02   0.379E+02 0.379E+02 -.379E+02   0.605E+00 0.605E+00 -.605E+00   -.191E-02 -.191E-02 0.186E-02
   -.385E+02 0.385E+02 -.385E+02   0.379E+02 -.379E+02 0.379E+02   0.605E+00 -.605E+00 0.605E+00   -.187E-02 0.186E-02 -.189E-02
   0.386E+02 0.386E+02 -.386E+02   -.379E+02 -.379E+02 0.379E+02   -.607E+00 -.607E+00 0.607E+00   -.149E-02 -.148E-02 0.151E-02
   -.386E+02 -.386E+02 -.386E+02   0.379E+02 0.379E+02 0.379E+02   0.607E+00 0.607E+00 0.607E+00   0.151E-02 0.149E-02 0.150E-02
   0.386E+02 -.386E+02 0.386E+02   -.379E+02 0.379E+02 -.379E+02   -.607E+00 0.607E+00 -.607E+00   -.153E-02 0.154E-02 -.153E-02
   0.386E+02 0.386E+02 -.386E+02   -.379E+02 -.379E+02 0.379E+02   -.607E+00 -.607E+00 0.607E+00   -.153E-02 -.153E-02 0.154E-02
   0.386E+02 -.386E+02 0.386E+02   -.379E+02 0.379E+02 -.379E+02   -.607E+00 0.607E+00 -.607E+00   -.148E-02 0.152E-02 -.148E-02
   -.385E+02 -.385E+02 0.385E+02   0.379E+02 0.379E+02 -.379E+02   0.605E+00 0.605E+00 -.605E+00   -.187E-02 -.188E-02 0.187E-02
   -.385E+02 0.385E+02 -.385E+02   0.379E+02 -.379E+02 0.379E+02   0.605E+00 -.605E+00 0.605E+00   -.191E-02 0.187E-02 -.191E-02
   0.385E+02 0.385E+02 0.385E+02   -.379E+02 -.379E+02 -.379E+02   -.605E+00 -.605E+00 -.605E+00   0.191E-02 0.187E-02 0.190E-02
   0.385E+02 -.385E+02 -.385E+02   -.379E+02 0.379E+02 0.379E+02   -.605E+00 0.605E+00 0.605E+00   0.187E-02 -.191E-02 -.191E-02
   -.386E+02 -.386E+02 -.386E+02   0.379E+02 0.379E+02 0.379E+02   0.607E+00 0.607E+00 0.607E+00   0.148E-02 0.151E-02 0.149E-02
   -.386E+02 0.386E+02 0.386E+02   0.379E+02 -.379E+02 -.379E+02   0.607E+00 -.607E+00 -.607E+00   0.152E-02 -.149E-02 -.149E-02
   -.386E+02 0.386E+02 0.386E+02   0.379E+02 -.379E+02 -.379E+02   0.607E+00 -.607E+00 -.607E+00   0.154E-02 -.153E-02 -.153E-02
   0.385E+02 -.385E+02 -.385E+02   -.379E+02 0.379E+02 0.379E+02   -.605E+00 0.605E+00 0.605E+00   0.187E-02 -.187E-02 -.187E-02
   0.385E+02 0.385E+02 0.385E+02   -.379E+02 -.379E+02 -.379E+02   -.605E+00 -.605E+00 -.605E+00   0.191E-02 0.190E-02 0.187E-02
   -.386E+02 -.386E+02 -.386E+02   0.379E+02 0.379E+02 0.379E+02   0.607E+00 0.607E+00 0.607E+00   0.149E-02 0.149E-02 0.151E-02
 -----------------------------------------------------------------------------------------------
   -.221E-06 0.120E-04 0.443E-05   -.853E-13 0.639E-13 -.142E-13   -.289E-14 -.266E-14 -.111E-14   -.950E-05 -.187E-04 0.201E-04
 
 
 POSITION                                       TOTAL-FORCE (eV/Angst)
 -----------------------------------------------------------------------------------
     10.59000     10.59000     10.59000        -0.000000     -0.000000      0.000000
     10.59000      5.29500      5.29500        -0.000000     -0.000000      0.000000
      5.29500      5.29500     10.59000        -0.000000     -0.000000      0.000000
      5.29500     10.59000      5.29500        -0.000000     -0.000000      0.000000
      7.94250      2.64750      7.94250        -0.000000     -0.000000      0.000000
      2.64750      2.64750      2.64750        -0.000000     -0.000000      0.000000
      2.64750      7.94250      7.94250        -0.000000     -0.000000      0.000000
      7.94250      7.94250      2.64750        -0.000000     -0.000000      0.000000
      6.61884      6.61884      6.61884        -0.001829     -0.001829     -0.001829
      3.97116      9.26616      1.32384         0.001829      0.001829     -0.001829
      9.26616      1.32384      3.97116         0.001829     -0.001829      0.001829
      1.32384      3.97116      9.26616        -0.001829      0.001829      0.001829
      9.26616      3.97116      1.32384         0.001829      0.001829     -0.001829
      3.97116      1.32384      9.26616         0.001829     -0.001829      0.001829
      1.32384      9.26616      3.97116        -0.001829      0.001829      0.001829
      6.61884      1.32384      1.32384        -0.001829     -0.001829     -0.001829
      3.97116      3.97116      6.61884         0.001829      0.001829     -0.001829
      9.26616      6.61884      9.26616         0.001829     -0.001829      0.001829
      9.26616      9.26616      6.61884         0.001829      0.001829     -0.001829
      3.97116      6.61884      3.97116         0.001829     -0.001829      0.001829
      1.32384      6.61884      1.32384        -0.001829     -0.001829     -0.001829
      6.61884      3.97116      3.97116        -0.001829      0.001829      0.001829
      6.61884      9.26616      9.26616        -0.001829      0.001829      0.001829
      1.32384      1.32384      6.61884        -0.001829     -0.001829     -0.001829
      4.00908      4.00908      4.00908         0.019351      0.019351      0.019351
      6.58092      1.28592      9.30408        -0.019351     -0.019351      0.019351
      1.28592      9.30408      6.58092        -0.019351      0.019351     -0.019351
      9.30408      6.58092      1.28592         0.019351     -0.019351     -0.019351
      1.36163      6.65663      3.93337         0.018221      0.018221     -0.018221
      9.22837      9.22837      9.22837        -0.018221     -0.018221     -0.018221
      6.65663      3.93337      1.36163         0.018221     -0.018221      0.018221
      3.93337      1.36163      6.65663        -0.018221      0.018221      0.018221
      6.65663      1.36163      3.93337         0.018221      0.018221     -0.018221
      1.36163      3.93337      6.65663         0.018221     -0.018221      0.018221
      3.93337      6.65663      1.36163        -0.018221      0.018221      0.018221
      1.28592      6.58092      9.30408        -0.019351     -0.019351      0.019351
      6.58092      9.30408      1.28592        -0.019351      0.019351     -0.019351
      9.30408      1.28592      6.58092         0.019351     -0.019351     -0.019351
      4.00908      9.30408      9.30408         0.019351      0.019351      0.019351
      6.58092      6.58092      4.00908        -0.019351     -0.019351      0.019351
      1.28592      4.00908      1.28592        -0.019351      0.019351     -0.019351
      1.36163      1.36163      9.22837         0.018221      0.018221     -0.018221
      9.22837      3.93337      3.93337        -0.018221     -0.018221     -0.018221
      6.65663      9.22837      6.65663         0.018221     -0.018221      0.018221
      6.65663      6.65663      9.22837         0.018221      0.018221     -0.018221
      1.36163      9.22837      1.36163         0.018221     -0.018221      0.018221
      1.28592      1.28592      4.00908        -0.019351     -0.019351      0.019351
      6.58092      4.00908      6.58092        -0.019351      0.019351     -0.019351
      9.30408      4.00908      9.30408         0.019351      0.019351      0.019351
      4.00908      6.58092      6.58092         0.019351     -0.019351     -0.019351
      3.93337      9.22837      3.93337        -0.018221     -0.018221     -0.018221
      9.22837      1.36163      1.36163        -0.018221      0.018221      0.018221
      9.22837      6.65663      6.65663        -0.018221      0.018221      0.018221
      4.00908      1.28592      1.28592         0.019351     -0.019351     -0.019351
      9.30408      9.30408      4.00908         0.019351      0.019351      0.019351
      3.93337      3.93337      9.22837        -0.018221     -0.018221     -0.018221
 -----------------------------------------------------------------------------------
    total drift:                               -0.000010     -0.000007      0.000025


--------------------------------------------------------------------------------------------------------



  FREE ENERGIE OF THE ION-ELECTRON SYSTEM (eV)
  ---------------------------------------------------
  free  energy   TOTEN  =      -215.56763282 eV

  energy  without entropy=     -215.56763282  energy(sigma->0) =     -215.56763282
 


--------------------------------------------------------------------------------------------------------


    POTLOK:  cpu time      0.1584: real time      0.1603


--------------------------------------------------------------------------------------------------------


     LOOP+:  cpu time   1767.8979: real time   1773.8090
 -----------------------------------------------------------------------------
|                                                                             |
|           W    W    AA    RRRRR   N    N  II  N    N   GGGG   !!!           |
|           W    W   A  A   R    R  NN   N  II  NN   N  G    G  !!!           |
|           W    W  A    A  R    R  N N  N  II  N N  N  G       !!!           |
|           W WW W  AAAAAA  RRRRR   N  N N  II  N  N N  G  GGG   !            |
|           WW  WW  A    A  R   R   N   NN  II  N   NN  G    G                |
|           W    W  A    A  R    R  N    N  II  N    N   GGGG   !!!           |
|                                                                             |
|     Tetrahedron method does not include variations of the Fermi             |
|     occupations, so forces and stress will be inaccurate. We suggest        |
|     using a different smearing scheme ISMEAR = 1 or 2 for metals in         |
|     relaxations.                                                            |
|                                                                             |
 -----------------------------------------------------------------------------

    4ORBIT:  cpu time      0.0000: real time      0.0000



 total charge

# of ion       s       p       d       tot
------------------------------------------
    1        0.504   0.433   9.792  10.729
    2        0.504   0.433   9.792  10.729
    3        0.504   0.433   9.792  10.729
    4        0.504   0.433   9.792  10.729
    5        0.504   0.433   9.792  10.729
    6        0.504   0.433   9.792  10.729
    7        0.504   0.433   9.792  10.729
    8        0.504   0.433   9.792  10.729
    9        0.724   0.639   9.963  11.327
   10        0.724   0.639   9.963  11.327
   11        0.724   0.639   9.963  11.327
   12        0.724   0.639   9.963  11.327
   13        0.724   0.639   9.963  11.327
   14        0.724   0.639   9.963  11.327
   15        0.724   0.639   9.963  11.327
   16        0.724   0.639   9.963  11.327
   17        0.724   0.639   9.963  11.327
   18        0.724   0.639   9.963  11.327
   19        0.724   0.639   9.963  11.327
   20        0.724   0.639   9.963  11.327
   21        0.724   0.639   9.963  11.327
   22        0.724   0.639   9.963  11.327
   23        0.724   0.639   9.963  11.327
   24        0.724   0.639   9.963  11.327
   25        1.334   2.408   0.000   3.742
   26        1.334   2.408   0.000   3.742
   27        1.334   2.408   0.000   3.742
   28        1.334   2.408   0.000   3.742
   29        1.334   2.408   0.000   3.742
   30        1.334   2.408   0.000   3.742
   31        1.334   2.408   0.000   3.742
   32        1.334   2.408   0.000   3.742
   33        1.334   2.408   0.000   3.742
   34        1.334   2.408   0.000   3.742
   35        1.334   2.408   0.000   3.742
   36        1.334   2.408   0.000   3.742
   37        1.334   2.408   0.000   3.742
   38        1.334   2.408   0.000   3.742
   39        1.334   2.408   0.000   3.742
   40        1.334   2.408   0.000   3.742
   41        1.334   2.408   0.000   3.742
   42        1.334   2.408   0.000   3.742
   43        1.334   2.408   0.000   3.742
   44        1.334   2.408   0.000   3.742
   45        1.334   2.408   0.000   3.742
   46        1.334   2.408   0.000   3.742
   47        1.334   2.408   0.000   3.742
   48        1.334   2.408   0.000   3.742
   49        1.334   2.408   0.000   3.742
   50        1.334   2.408   0.000   3.742
   51        1.334   2.408   0.000   3.742
   52        1.334   2.408   0.000   3.742
   53        1.334   2.408   0.000   3.742
   54        1.334   2.408   0.000   3.742
   55        1.334   2.408   0.000   3.742
   56        1.334   2.408   0.000   3.742
--------------------------------------------------
tot         58.312  90.754 237.750 386.815
 
 WARNING: Fermi level nearly degenerate with energies of tetrahedron. This may
     result in numerical instabilities because the density changes by tiny
     changes of the Fermi energy. If the calculation converges, the total
     energy will still be reliable. If you notice convergence issues, you can
     try to
     *) Use a Gamma centered k-point grid
     *) Use tetrahedron method without corrections ISMEAR = -4
     *) Don't use tetrahedron method
        ISMEAR = 0 for semiconductors, 1 or 2 for metals

 BZINTS: Fermi energy:    4.270721;  496.000000 electrons
         Band energy:-0.175267E+04;  BLOECHL correction:   -0.000000

 total amount of memory used by VASP MPI-rank0   483632. kBytes
=======================================================================

   base      :      30000. kBytes
   nonl-proj :     109058. kBytes
   fftplans  :      23967. kBytes
   grid      :      10035. kBytes
   one-center:        108. kBytes
   wavefun   :     310464. kBytes
 
  
  
 General timing and accounting informations for this job:
 ========================================================
  
                  Total CPU time used (sec):    12964.663
                            User time (sec):    12804.458
                          System time (sec):      160.205
                         Elapsed time (sec):    13027.813
  
                   Maximum memory used (kb):      860480.
                   Average memory used (kb):          N/A
  
                          Minor page faults:       662200
                          Major page faults:            0
                 Voluntary context switches:         1824
