/scratch/aleks/calculations/VASP/Si/slab
Sun Sep 29 14:36:28 EEST 2024
 running on   36 total cores
 distrk:  each k-point on   36 cores,    1 groups
 distr:  one band on    9 cores,    4 groups
 vasp.6.3.2 27Jun22 (build Sep 20 2022 16:10:27) complex                        
  
 POSCAR found type information on POSCAR Si
 POSCAR found :  1 types and     160 ions
 Reading from existing POTCAR
 -----------------------------------------------------------------------------
|                                                                             |
|           W    W    AA    RRRRR   N    N  II  N    N   GGGG   !!!           |
|           W    W   A  A   R    R  NN   N  II  NN   N  G    G  !!!           |
|           W    W  A    A  R    R  N N  N  II  N N  N  G       !!!           |
|           W WW W  AAAAAA  RRRRR   N  N N  II  N  N N  G  GGG   !            |
|           WW  WW  A    A  R   R   N   NN  II  N   NN  G    G                |
|           W    W  A    A  R    R  N    N  II  N    N   GGGG   !!!           |
|                                                                             |
|     You use a magnetic or noncollinear calculation, but did not specify     |
|     the initial magnetic moment with the MAGMOM tag. Note that a            |
|     default of 1 will be used for all atoms. This ferromagnetic setup       |
|     may break the symmetry of the crystal, in particular it may rule        |
|     out finding an antiferromagnetic solution. Thence, we recommend         |
|     setting the initial magnetic moment manually or verifying carefully     |
|     that this magnetic setup is desired.                                    |
|                                                                             |
 -----------------------------------------------------------------------------

 scaLAPACK will be used
 Reading from existing POTCAR
 LDA part: xc-table for Pade appr. of Perdew
 POSCAR, INCAR and KPOINTS ok, starting setup
 FFT: planning ... GRIDC
 FFT: planning ... GRID_SOFT
 FFT: planning ... GRID
 WAVECAR not read
 entering main loop
       N       E                     dE             d eps       ncg     rms          rms(c)
DAV:   1     0.234005969466E+04    0.23401E+04   -0.25101E+05  5816   0.118E+03
DAV:   2    -0.568430744995E+03   -0.29085E+04   -0.27174E+04  7024   0.185E+02
DAV:   3    -0.814686208165E+03   -0.24626E+03   -0.23594E+03  7216   0.469E+01
DAV:   4    -0.823844654514E+03   -0.91584E+01   -0.12159E+02  8408   0.116E+01
DAV:   5    -0.824156478788E+03   -0.31182E+00   -0.13898E+01  9048   0.282E+00BRMIX: very serious problems
 the old and the new charge density differ
 old charge density:   640.00000 new  640.09081
    0.539E+01
DAV:   6    -0.843171655343E+03   -0.19015E+02   -0.88445E+00  8024   0.321E+00BRMIX: very serious problems
 the old and the new charge density differ
 old charge density:   640.09081 new  640.12113
    0.435E+01
DAV:   7    -0.697845323530E+04   -0.61353E+04   -0.94034E+02  8632   0.121E+01BRMIX: very serious problems
 the old and the new charge density differ
 old charge density:   640.12113 new  667.27518
    0.378E+01
DAV:   8    -0.144817806319E+05   -0.75033E+04   -0.10341E+03  8652   0.250E+01BRMIX: very serious problems
 the old and the new charge density differ
 old charge density:   667.27518 new  681.36190
    0.427E+01
DAV:   9    -0.147496612965E+05   -0.26788E+03   -0.24464E+03  7072   0.343E+01BRMIX: very serious problems
 the old and the new charge density differ
 old charge density:   681.36190 new  662.25524
    0.520E+01
DAV:  10    -0.350920277550E+05   -0.20342E+05   -0.24879E+03  6844   0.539E+01BRMIX: very serious problems
 the old and the new charge density differ
 old charge density:   662.25524 new  650.83233
    0.588E+01
DAV:  11    -0.524297396331E+05   -0.17338E+05   -0.46910E+03  6904   0.640E+01BRMIX: very serious problems
 the old and the new charge density differ
 old charge density:   650.83233 new  644.45223
    0.748E+01
DAV:  12    -0.816252638587E+05   -0.29196E+05   -0.51368E+03  6788   0.102E+02BRMIX: very serious problems
 the old and the new charge density differ
 old charge density:   644.45223 new  612.87952
    0.882E+01
DAV:  13    -0.676361609802E+05    0.13989E+05   -0.63971E+03  6696   0.132E+02BRMIX: very serious problems
 the old and the new charge density differ
 old charge density:   612.87952 new  586.99551
    0.918E+01
DAV:  14    -0.587061390973E+05    0.89300E+04   -0.71737E+03  6940   0.173E+02BRMIX: very serious problems
 the old and the new charge density differ
 old charge density:   586.99551 new  564.90301
    0.831E+01
DAV:  15    -0.118543260004E+06   -0.59837E+05   -0.86150E+03  7076   0.192E+02BRMIX: very serious problems
 the old and the new charge density differ
 old charge density:   564.90301 new  566.09676
    0.837E+01
DAV:  16    -0.734676890752E+05    0.45076E+05   -0.85146E+03  7256   0.239E+02BRMIX: very serious problems
 the old and the new charge density differ
 old charge density:   566.09676 new  518.40204
    0.720E+01
DAV:  17    -0.974600498862E+05   -0.23992E+05   -0.11282E+04  7312   0.241E+02BRMIX: very serious problems
 the old and the new charge density differ
 old charge density:   518.40204 new  513.64114
    0.650E+01
DAV:  18    -0.759643846001E+06   -0.66218E+06   -0.11254E+04  7564   0.283E+02BRMIX: very serious problems
 the old and the new charge density differ
 old charge density:   513.64114 new  496.59608
    0.971E+01
DAV:  19    -0.109524737254E+07   -0.33560E+06   -0.12541E+04  7096   0.293E+02BRMIX: very serious problems
 the old and the new charge density differ
 old charge density:   496.59608 new  483.15774
    0.859E+01
DAV:  20    -0.837457610591E+07   -0.72793E+07   -0.12927E+04  7396   0.304E+02BRMIX: very serious problems
 the old and the new charge density differ
 old charge density:   483.15774 new  487.67867
    0.259E+02
DAV:  21    -0.573229346937E+06    0.78013E+07   -0.13260E+04  7104   0.330E+02BRMIX: very serious problems
 the old and the new charge density differ
 old charge density:   487.67867 new  476.58126
    0.103E+02
DAV:  22    -0.109903860874E+08   -0.10417E+08   -0.49978E+05  7200   0.314E+02BRMIX: very serious problems
 the old and the new charge density differ
 old charge density:   476.58126 new  488.40144
    0.857E+02
DAV:  23    -0.480038403325E+07    0.61900E+07   -0.24631E+04  7104   0.348E+02BRMIX: very serious problems
 the old and the new charge density differ
 old charge density:   488.40144 new  486.43701
    0.453E+02
DAV:  24    -0.524754815460E+07   -0.44716E+06   -0.69355E+05  7280   0.336E+02BRMIX: very serious problems
 the old and the new charge density differ
 old charge density:   486.43701 new  483.84773
    0.449E+02
DAV:  25    -0.113202209920E+08   -0.60727E+07   -0.47035E+05  7420   0.355E+02BRMIX: very serious problems
 the old and the new charge density differ
 old charge density:   483.84773 new  488.69905
    0.106E+03
DAV:  26    -0.954797265509E+07    0.17722E+07   -0.17061E+04  7212   0.360E+02BRMIX: very serious problems
 the old and the new charge density differ
 old charge density:   488.69905 new  483.53600
    0.363E+02
DAV:  27    -0.951681509766E+07    0.31158E+05   -0.13815E+04  7232   0.367E+02BRMIX: very serious problems
 the old and the new charge density differ
 old charge density:   483.53600 new  489.94487
    0.515E+02
DAV:  28    -0.878977782052E+07    0.72704E+06   -0.13319E+04  7052   0.383E+02BRMIX: very serious problems
 the old and the new charge density differ
 old charge density:   489.94487 new  472.03870
    0.426E+02
DAV:  29    -0.686335863792E+07    0.19264E+07   -0.10673E+06  7320   0.361E+02BRMIX: very serious problems
 the old and the new charge density differ
 old charge density:   472.03870 new  474.57982
    0.973E+02
DAV:  30    -0.808555095357E+07   -0.12222E+07   -0.17235E+04  7312   0.377E+02BRMIX: very serious problems
 the old and the new charge density differ
 old charge density:   474.57982 new  464.75977
    0.446E+02
DAV:  31    -0.665656586453E+07    0.14290E+07   -0.77736E+05  7140   0.367E+02BRMIX: very serious problems
 the old and the new charge density differ
 old charge density:   464.75977 new  455.45956
    0.103E+03
DAV:  32    -0.388724066827E+07    0.27693E+07   -0.27369E+05  7380   0.355E+02BRMIX: very serious problems
 the old and the new charge density differ
 old charge density:   455.45956 new  465.77077
    0.115E+03
DAV:  33    -0.139486499594E+08   -0.10061E+08   -0.10484E+06  7432   0.380E+02BRMIX: very serious problems
 the old and the new charge density differ
 old charge density:   465.77077 new  474.62672
    0.125E+03
DAV:  34    -0.785179197739E+07    0.60969E+07   -0.17511E+04  7176   0.391E+02BRMIX: very serious problems
 the old and the new charge density differ
 old charge density:   474.62672 new  454.71617
    0.446E+02
DAV:  35    -0.143649213247E+08   -0.65131E+07   -0.27912E+04  7160   0.358E+02BRMIX: very serious problems
 the old and the new charge density differ
 old charge density:   454.71617 new  473.63574
    0.675E+02
DAV:  36    -0.780544156616E+07    0.65595E+07   -0.15473E+04  7024   0.388E+02BRMIX: very serious problems
 the old and the new charge density differ
 old charge density:   473.63574 new  465.97871
    0.419E+02
DAV:  37    -0.995021823955E+07   -0.21448E+07   -0.14960E+04  7376   0.375E+02BRMIX: very serious problems
 the old and the new charge density differ
 old charge density:   465.97871 new  470.09025
    0.437E+02
DAV:  38    -0.141963117740E+08   -0.42461E+07   -0.14560E+04  7264   0.389E+02BRMIX: very serious problems
 the old and the new charge density differ
 old charge density:   470.09025 new  480.18961
    0.408E+02
DAV:  39    -0.119269204067E+08    0.22694E+07   -0.18214E+06  7260   0.388E+02BRMIX: very serious problems
 the old and the new charge density differ
 old charge density:   480.18961 new  489.60939
    0.145E+03
DAV:  40    -0.921620927181E+07    0.27107E+07   -0.16723E+04  7280   0.402E+02BRMIX: very serious problems
 the old and the new charge density differ
 old charge density:   489.60939 new  479.34078
    0.459E+02
DAV:  41    -0.124160479140E+08   -0.31998E+07   -0.13719E+04  7152   0.378E+02BRMIX: very serious problems
 the old and the new charge density differ
 old charge density:   479.34078 new  485.21762
    0.659E+02
DAV:  42    -0.450040891342E+07    0.79156E+07   -0.13679E+04  7124   0.398E+02BRMIX: very serious problems
 the old and the new charge density differ
 old charge density:   485.21762 new  464.18603
    0.417E+02
DAV:  43    -0.934802731286E+07   -0.48476E+07   -0.15455E+04  7180   0.362E+02BRMIX: very serious problems
 the old and the new charge density differ
 old charge density:   464.18603 new  469.65790
    0.442E+02
DAV:  44    -0.129884347849E+08   -0.36404E+07   -0.11282E+06  7256   0.382E+02BRMIX: very serious problems
 the old and the new charge density differ
 old charge density:   469.65790 new  464.91633
    0.128E+03
DAV:  45    -0.107181574132E+08    0.22703E+07   -0.18585E+04  6996   0.370E+02BRMIX: very serious problems
 the old and the new charge density differ
 old charge density:   464.91633 new  462.75711
    0.510E+02
DAV:  46    -0.892763851229E+07    0.17905E+07   -0.63083E+05  7312   0.361E+02BRMIX: very serious problems
 the old and the new charge density differ
 old charge density:   462.75711 new  474.72382
    0.910E+02
DAV:  47    -0.156561525610E+08   -0.67285E+07   -0.53813E+06  7260   0.381E+02BRMIX: very serious problems
 the old and the new charge density differ
 old charge density:   474.72382 new  473.11121
    0.140E+03
DAV:  48    -0.943817749352E+07    0.62180E+07   -0.36720E+05  7016   0.383E+02BRMIX: very serious problems
 the old and the new charge density differ
 old charge density:   473.11121 new  460.73163
    0.811E+02
DAV:  49    -0.180544252990E+08   -0.86162E+07   -0.17435E+04  7228   0.358E+02BRMIX: very serious problems
 the old and the new charge density differ
 old charge density:   460.73163 new  465.01320
    0.547E+02
DAV:  50    -0.629257156545E+07    0.11762E+08   -0.14879E+04  7172   0.367E+02BRMIX: very serious problems
 the old and the new charge density differ
 old charge density:   465.01320 new  455.58762
    0.471E+02
DAV:  51    -0.198874858833E+08   -0.13595E+08   -0.17013E+04  7472   0.382E+02BRMIX: very serious problems
 the old and the new charge density differ
 old charge density:   455.58762 new  451.90329
    0.483E+02
DAV:  52    -0.728741486238E+07    0.12600E+08   -0.21747E+07  7332   0.386E+02BRMIX: very serious problems
 the old and the new charge density differ
 old charge density:   451.90329 new  467.21647
    0.954E+02
DAV:  53    -0.156889868951E+08   -0.84016E+07   -0.18559E+04  7464   0.402E+02BRMIX: very serious problems
 the old and the new charge density differ
 old charge density:   467.21647 new  475.14852
    0.514E+02
DAV:  54    -0.515942770101E+07    0.10530E+08   -0.15655E+04  7212   0.416E+02BRMIX: very serious problems
 the old and the new charge density differ
 old charge density:   475.14852 new  465.95335
    0.410E+02
DAV:  55    -0.226924657135E+08   -0.17533E+08   -0.77328E+07  7452   0.405E+02BRMIX: very serious problems
 the old and the new charge density differ
 old charge density:   465.95335 new  461.39100
    0.150E+03
DAV:  56    -0.216494606414E+08    0.10430E+07   -0.69023E+07  7804   0.452E+02BRMIX: very serious problems
 the old and the new charge density differ
 old charge density:   461.39100 new  461.55240
    0.102E+03
 WARNING: Sub-Space-Matrix is not hermitian in DAV            5
 -9.461692613926997E-005
 WARNING: Sub-Space-Matrix is not hermitian in DAV            5
 -9.461692613926997E-005
 WARNING: Sub-Space-Matrix is not hermitian in DAV            5
 -9.461692613926997E-005
 WARNING: Sub-Space-Matrix is not hermitian in DAV            5
 -9.461692613926997E-005
 WARNING: Sub-Space-Matrix is not hermitian in DAV            5
 -9.461692613926997E-005
 WARNING: Sub-Space-Matrix is not hermitian in DAV            5
 -9.461692613926997E-005
 WARNING: Sub-Space-Matrix is not hermitian in DAV            5
 -9.461692613926997E-005
 WARNING: Sub-Space-Matrix is not hermitian in DAV            5
 -9.461692613926997E-005
 WARNING: Sub-Space-Matrix is not hermitian in DAV            5
 -9.461692613926997E-005
 WARNING: Sub-Space-Matrix is not hermitian in DAV            5
 -9.461692613926997E-005
 WARNING: Sub-Space-Matrix is not hermitian in DAV            5
 -9.461692613926997E-005
 WARNING: Sub-Space-Matrix is not hermitian in DAV            5
 -9.461692613926997E-005
 WARNING: Sub-Space-Matrix is not hermitian in DAV            5
 -9.461692613926997E-005
 WARNING: Sub-Space-Matrix is not hermitian in DAV            5
 -9.461692613926997E-005
 WARNING: Sub-Space-Matrix is not hermitian in DAV            5
 -9.461692613926997E-005
 WARNING: Sub-Space-Matrix is not hermitian in DAV            5
 -9.461692613926997E-005
 WARNING: Sub-Space-Matrix is not hermitian in DAV            5
 -9.461692613926997E-005
 WARNING: Sub-Space-Matrix is not hermitian in DAV            5
 -9.461692613926997E-005
 WARNING: Sub-Space-Matrix is not hermitian in DAV            5
 -9.461692613926997E-005
 WARNING: Sub-Space-Matrix is not hermitian in DAV            5
 -9.461692613926997E-005
 WARNING: Sub-Space-Matrix is not hermitian in DAV            5
 -9.461692613926997E-005
 WARNING: Sub-Space-Matrix is not hermitian in DAV            5
 -9.461692613926997E-005
 WARNING: Sub-Space-Matrix is not hermitian in DAV            5
 -9.461692613926997E-005
 WARNING: Sub-Space-Matrix is not hermitian in DAV            5
 -9.461692613926997E-005
 WARNING: Sub-Space-Matrix is not hermitian in DAV            5
 -9.461692613926997E-005
 WARNING: Sub-Space-Matrix is not hermitian in DAV            5
 -9.461692613926997E-005
 WARNING: Sub-Space-Matrix is not hermitian in DAV            5
 -9.461692613926997E-005
 WARNING: Sub-Space-Matrix is not hermitian in DAV            5
 -9.461692613926997E-005
 WARNING: Sub-Space-Matrix is not hermitian in DAV            5
 -9.461692613926997E-005
 WARNING: Sub-Space-Matrix is not hermitian in DAV            5
 -9.461692613926997E-005
 WARNING: Sub-Space-Matrix is not hermitian in DAV            5
 -9.461692613926997E-005
 WARNING: Sub-Space-Matrix is not hermitian in DAV            5
 -9.461692613926997E-005
 WARNING: Sub-Space-Matrix is not hermitian in DAV            5
 -9.461692613926997E-005
 WARNING: Sub-Space-Matrix is not hermitian in DAV            5
 -9.461692613926997E-005
 WARNING: Sub-Space-Matrix is not hermitian in DAV            5
 -9.461692613926997E-005
 WARNING: Sub-Space-Matrix is not hermitian in DAV            5
 -9.461692613926997E-005
DAV:  57    -0.192469309780E+08    0.24025E+07   -0.16379E+07  7616   0.442E+02BRMIX: very serious problems
 the old and the new charge density differ
 old charge density:   461.55240 new  464.70006
    0.157E+03
DAV:  58    -0.737536346348E+08   -0.54507E+08   -0.45471E+08  7808   0.456E+02BRMIX: very serious problems
 the old and the new charge density differ
 old charge density:   464.70006 new  471.63668
    0.193E+03
DAV:  59    -0.665798505072E+07    0.67096E+08   -0.34066E+07  7608   0.440E+02BRMIX: very serious problems
 the old and the new charge density differ
 old charge density:   471.63668 new  470.65040
    0.553E+02
DAV:  60    -0.350891451098E+08   -0.28431E+08   -0.13355E+08  7600   0.435E+02BRMIX: very serious problems
 the old and the new charge density differ
 old charge density:   470.65040 new  495.66658
    0.293E+03
DAV:  61    -0.116126100217E+08    0.23477E+08   -0.92404E+06  7956   0.549E+02BRMIX: very serious problems
 the old and the new charge density differ
 old charge density:   495.66658 new  486.87673
    0.544E+02
DAV:  62    -0.212787244089E+07    0.94847E+07   -0.90663E+05  7908   0.504E+02BRMIX: very serious problems
 the old and the new charge density differ
 old charge density:   486.87673 new  488.73390
    0.921E+02
DAV:  63    -0.163258058756E+08   -0.14198E+08   -0.20354E+07  8272   0.557E+02BRMIX: very serious problems
 the old and the new charge density differ
 old charge density:   488.73390 new  481.88282
    0.206E+03
DAV:  64    -0.727607642807E+08   -0.56435E+08   -0.17833E+08  8000   0.596E+02BRMIX: very serious problems
 the old and the new charge density differ
 old charge density:   481.88282 new  478.11367
    0.962E+02
DAV:  65    -0.729273000653E+08   -0.16654E+06   -0.22758E+08  8216   0.556E+02BRMIX: very serious problems
 the old and the new charge density differ
 old charge density:   478.11367 new  502.75756
    0.117E+03
 WARNING: Sub-Space-Matrix is not hermitian in DAV            5
 -2.160179848854026E-005
 WARNING: Sub-Space-Matrix is not hermitian in DAV            6
 -1.225498512685683E-005
 WARNING: Sub-Space-Matrix is not hermitian in DAV            5
 -2.160179848854026E-005
 WARNING: Sub-Space-Matrix is not hermitian in DAV            6
 -1.225498512685683E-005
 WARNING: Sub-Space-Matrix is not hermitian in DAV            5
 -2.160179848854026E-005
 WARNING: Sub-Space-Matrix is not hermitian in DAV            6
 -1.225498512685683E-005
 WARNING: Sub-Space-Matrix is not hermitian in DAV            5
 -2.160179848854026E-005
 WARNING: Sub-Space-Matrix is not hermitian in DAV            6
 -1.225498512685683E-005
 WARNING: Sub-Space-Matrix is not hermitian in DAV            5
 WARNING: Sub-Space-Matrix is not hermitian in DAV            5
 -2.160179848854026E-005
 WARNING: Sub-Space-Matrix is not hermitian in DAV            6
 -1.225498512685683E-005
 WARNING: Sub-Space-Matrix is not hermitian in DAV            5
 -2.160179848854026E-005
 WARNING: Sub-Space-Matrix is not hermitian in DAV            6
 -1.225498512685683E-005
 WARNING: Sub-Space-Matrix is not hermitian in DAV            5
 -2.160179848854026E-005
 WARNING: Sub-Space-Matrix is not hermitian in DAV            6
 -1.225498512685683E-005
 WARNING: Sub-Space-Matrix is not hermitian in DAV            5
 -2.160179848854026E-005
 WARNING: Sub-Space-Matrix is not hermitian in DAV            6
 -1.225498512685683E-005
 WARNING: Sub-Space-Matrix is not hermitian in DAV            5
 -2.160179848854026E-005
 WARNING: Sub-Space-Matrix is not hermitian in DAV            6
 -1.225498512685683E-005
 WARNING: Sub-Space-Matrix is not hermitian in DAV            5
 -2.160179848854026E-005
 WARNING: Sub-Space-Matrix is not hermitian in DAV            6
 -1.225498512685683E-005
 WARNING: Sub-Space-Matrix is not hermitian in DAV            5
 -2.160179848854026E-005
 WARNING: Sub-Space-Matrix is not hermitian in DAV            6
 -1.225498512685683E-005
 WARNING: Sub-Space-Matrix is not hermitian in DAV            5
 -2.160179848854026E-005
 WARNING: Sub-Space-Matrix is not hermitian in DAV            6
 -1.225498512685683E-005
 WARNING: Sub-Space-Matrix is not hermitian in DAV            5
 -2.160179848854026E-005
 WARNING: Sub-Space-Matrix is not hermitian in DAV            6
 -1.225498512685683E-005
 WARNING: Sub-Space-Matrix is not hermitian in DAV            5
 -2.160179848854026E-005
 WARNING: Sub-Space-Matrix is not hermitian in DAV            6
 -1.225498512685683E-005
 WARNING: Sub-Space-Matrix is not hermitian in DAV            5
 -2.160179848854026E-005
 WARNING: Sub-Space-Matrix is not hermitian in DAV            6
 -1.225498512685683E-005
 WARNING: Sub-Space-Matrix is not hermitian in DAV            5
 -2.160179848854026E-005
 WARNING: Sub-Space-Matrix is not hermitian in DAV            6
 -1.225498512685683E-005
 WARNING: Sub-Space-Matrix is not hermitian in DAV            5
 -2.160179848854026E-005
 WARNING: Sub-Space-Matrix is not hermitian in DAV            6
 -1.225498512685683E-005
 WARNING: Sub-Space-Matrix is not hermitian in DAV            5
 -2.160179848854026E-005
 WARNING: Sub-Space-Matrix is not hermitian in DAV            6
 -1.225498512685683E-005
 WARNING: Sub-Space-Matrix is not hermitian in DAV            5
 -2.160179848854026E-005
 WARNING: Sub-Space-Matrix is not hermitian in DAV            6
 -1.225498512685683E-005
 WARNING: Sub-Space-Matrix is not hermitian in DAV            5
 -2.160179848854026E-005
 WARNING: Sub-Space-Matrix is not hermitian in DAV            6
 -1.225498512685683E-005
 WARNING: Sub-Space-Matrix is not hermitian in DAV            5
 -2.160179848854026E-005
 WARNING: Sub-Space-Matrix is not hermitian in DAV            6
 -1.225498512685683E-005
 WARNING: Sub-Space-Matrix is not hermitian in DAV            5
 -2.160179848854026E-005
 WARNING: Sub-Space-Matrix is not hermitian in DAV            6
 -1.225498512685683E-005
 WARNING: Sub-Space-Matrix is not hermitian in DAV            5
 -2.160179848854026E-005
 WARNING: Sub-Space-Matrix is not hermitian in DAV            6
 -1.225498512685683E-005
 WARNING: Sub-Space-Matrix is not hermitian in DAV            5
 -2.160179848854026E-005
 WARNING: Sub-Space-Matrix is not hermitian in DAV            6
 -1.225498512685683E-005
 WARNING: Sub-Space-Matrix is not hermitian in DAV            5
 -2.160179848854026E-005
 WARNING: Sub-Space-Matrix is not hermitian in DAV            6
 -1.225498512685683E-005
 WARNING: Sub-Space-Matrix is not hermitian in DAV            5
 -2.160179848854026E-005
 WARNING: Sub-Space-Matrix is not hermitian in DAV            6
 -1.225498512685683E-005
 WARNING: Sub-Space-Matrix is not hermitian in DAV            5
 -2.160179848854026E-005
 WARNING: Sub-Space-Matrix is not hermitian in DAV            6
 -1.225498512685683E-005
 WARNING: Sub-Space-Matrix is not hermitian in DAV            5
 -2.160179848854026E-005
 WARNING: Sub-Space-Matrix is not hermitian in DAV            6
 -1.225498512685683E-005
 WARNING: Sub-Space-Matrix is not hermitian in DAV            5
 -2.160179848854026E-005
 WARNING: Sub-Space-Matrix is not hermitian in DAV            6
 -1.225498512685683E-005
 WARNING: Sub-Space-Matrix is not hermitian in DAV            5
 -2.160179848854026E-005
 WARNING: Sub-Space-Matrix is not hermitian in DAV            6
 -1.225498512685683E-005
 WARNING: Sub-Space-Matrix is not hermitian in DAV            5
 -2.160179848854026E-005
 WARNING: Sub-Space-Matrix is not hermitian in DAV            6
 -1.225498512685683E-005
 WARNING: Sub-Space-Matrix is not hermitian in DAV            5
 -2.160179848854026E-005
 WARNING: Sub-Space-Matrix is not hermitian in DAV            6
 -1.225498512685683E-005
 WARNING: Sub-Space-Matrix is not hermitian in DAV            5
 -2.160179848854026E-005
 WARNING: Sub-Space-Matrix is not hermitian in DAV            6
 -1.225498512685683E-005
 WARNING: Sub-Space-Matrix is not hermitian in DAV            5
 -2.160179848854026E-005
 WARNING: Sub-Space-Matrix is not hermitian in DAV            6
 -1.225498512685683E-005
 WARNING: Sub-Space-Matrix is not hermitian in DAV            5
 -2.160179848854026E-005
 WARNING: Sub-Space-Matrix is not hermitian in DAV            6
 -1.225498512685683E-005
 -2.160179848854026E-005
 WARNING: Sub-Space-Matrix is not hermitian in DAV            6
 -1.225498512685683E-005
DAV:  66    -0.102176965660E+08    0.62710E+08   -0.97737E+07  7484   0.422E+02BRMIX: very serious problems
 the old and the new charge density differ
 old charge density:   502.75756 new  542.52066
    0.225E+03
DAV:  67    -0.133115489964E+07    0.88865E+07   -0.57805E+06  6848   0.620E+02BRMIX: very serious problems
 the old and the new charge density differ
 old charge density:   542.52066 new  484.45385
    0.591E+02
DAV:  68    -0.872687852604E+07   -0.73957E+07   -0.10521E+07  7032   0.473E+02BRMIX: very serious problems
 the old and the new charge density differ
 old charge density:   484.45385 new  521.47203
    0.904E+02
DAV:  69    -0.136331604915E+08   -0.49063E+07   -0.46323E+07  7728   0.621E+02BRMIX: very serious problems
 the old and the new charge density differ
 old charge density:   521.47203 new  519.85944
    0.184E+03
 WARNING: Sub-Space-Matrix is not hermitian in DAV            5
  1.038665838592677E-005
 WARNING: Sub-Space-Matrix is not hermitian in DAV            5
  1.038665838592677E-005
 WARNING: Sub-Space-Matrix is not hermitian in DAV            5
  1.038665838592677E-005
 WARNING: Sub-Space-Matrix is not hermitian in DAV            5
  1.038665838592677E-005
 WARNING: Sub-Space-Matrix is not hermitian in DAV            5
  1.038665838592677E-005
 WARNING: Sub-Space-Matrix is not hermitian in DAV            5
  1.038665838592677E-005
 WARNING: Sub-Space-Matrix is not hermitian in DAV            5
  1.038665838592677E-005
 WARNING: Sub-Space-Matrix is not hermitian in DAV            5
  1.038665838592677E-005
 WARNING: Sub-Space-Matrix is not hermitian in DAV            5
  1.038665838592677E-005
 WARNING: Sub-Space-Matrix is not hermitian in DAV            5
  1.038665838592677E-005
 WARNING: Sub-Space-Matrix is not hermitian in DAV            5
  1.038665838592677E-005
 WARNING: Sub-Space-Matrix is not hermitian in DAV            5
  1.038665838592677E-005
 WARNING: Sub-Space-Matrix is not hermitian in DAV            5
  1.038665838592677E-005
 WARNING: Sub-Space-Matrix is not hermitian in DAV            5
  1.038665838592677E-005
 WARNING: Sub-Space-Matrix is not hermitian in DAV            5
  1.038665838592677E-005
 WARNING: Sub-Space-Matrix is not hermitian in DAV            5
  1.038665838592677E-005
 WARNING: Sub-Space-Matrix is not hermitian in DAV            5
  1.038665838592677E-005
 WARNING: Sub-Space-Matrix is not hermitian in DAV            5
  1.038665838592677E-005
 WARNING: Sub-Space-Matrix is not hermitian in DAV            5
  1.038665838592677E-005
 WARNING: Sub-Space-Matrix is not hermitian in DAV            5
  1.038665838592677E-005
 WARNING: Sub-Space-Matrix is not hermitian in DAV            5
  1.038665838592677E-005
 WARNING: Sub-Space-Matrix is not hermitian in DAV            5
  1.038665838592677E-005
 WARNING: Sub-Space-Matrix is not hermitian in DAV            5
  1.038665838592677E-005
 WARNING: Sub-Space-Matrix is not hermitian in DAV            5
  1.038665838592677E-005
 WARNING: Sub-Space-Matrix is not hermitian in DAV            5
  1.038665838592677E-005
 WARNING: Sub-Space-Matrix is not hermitian in DAV            5
 WARNING: Sub-Space-Matrix is not hermitian in DAV            5
  1.038665838592677E-005
 WARNING: Sub-Space-Matrix is not hermitian in DAV            5
  1.038665838592677E-005
 WARNING: Sub-Space-Matrix is not hermitian in DAV            5
  1.038665838592677E-005
 WARNING: Sub-Space-Matrix is not hermitian in DAV            5
  1.038665838592677E-005
 WARNING: Sub-Space-Matrix is not hermitian in DAV            5
  1.038665838592677E-005
 WARNING: Sub-Space-Matrix is not hermitian in DAV            5
  1.038665838592677E-005
 WARNING: Sub-Space-Matrix is not hermitian in DAV            5
  1.038665838592677E-005
 WARNING: Sub-Space-Matrix is not hermitian in DAV            5
  1.038665838592677E-005
 WARNING: Sub-Space-Matrix is not hermitian in DAV            5
  1.038665838592677E-005
 WARNING: Sub-Space-Matrix is not hermitian in DAV            5
  1.038665838592677E-005
  1.038665838592677E-005
DAV:  70    -0.558374489002E+07    0.80494E+07   -0.18843E+07  7660   0.640E+02BRMIX: very serious problems
 the old and the new charge density differ
 old charge density:   519.85944 new  503.74372
    0.105E+03
 WARNING: Sub-Space-Matrix is not hermitian in DAV            4
 -2.495831915637947E-005
 WARNING: Sub-Space-Matrix is not hermitian in DAV            4
 -2.495831915637947E-005
 WARNING: Sub-Space-Matrix is not hermitian in DAV            4
 -2.495831915637947E-005
 WARNING: Sub-Space-Matrix is not hermitian in DAV            4
 -2.495831915637947E-005
 WARNING: Sub-Space-Matrix is not hermitian in DAV            4
 -2.495831915637947E-005
 WARNING: Sub-Space-Matrix is not hermitian in DAV            4
 -2.495831915637947E-005
 WARNING: Sub-Space-Matrix is not hermitian in DAV            4
 -2.495831915637947E-005
 WARNING: Sub-Space-Matrix is not hermitian in DAV            4
 -2.495831915637947E-005
 WARNING: Sub-Space-Matrix is not hermitian in DAV            4
 -2.495831915637947E-005
 WARNING: Sub-Space-Matrix is not hermitian in DAV            4
 -2.495831915637947E-005
 WARNING: Sub-Space-Matrix is not hermitian in DAV            4
 -2.495831915637947E-005
 WARNING: Sub-Space-Matrix is not hermitian in DAV            4
 -2.495831915637947E-005
 WARNING: Sub-Space-Matrix is not hermitian in DAV            4
 -2.495831915637947E-005
 WARNING: Sub-Space-Matrix is not hermitian in DAV            4
 -2.495831915637947E-005
 WARNING: Sub-Space-Matrix is not hermitian in DAV            4
 -2.495831915637947E-005
 WARNING: Sub-Space-Matrix is not hermitian in DAV            4
 -2.495831915637947E-005
 WARNING: Sub-Space-Matrix is not hermitian in DAV            4
 -2.495831915637947E-005
 WARNING: Sub-Space-Matrix is not hermitian in DAV            4
 -2.495831915637947E-005
 WARNING: Sub-Space-Matrix is not hermitian in DAV            4
 -2.495831915637947E-005
 WARNING: Sub-Space-Matrix is not hermitian in DAV            4
 -2.495831915637947E-005
 WARNING: Sub-Space-Matrix is not hermitian in DAV            4
 -2.495831915637947E-005
 WARNING: Sub-Space-Matrix is not hermitian in DAV            4
 -2.495831915637947E-005
 WARNING: Sub-Space-Matrix is not hermitian in DAV            4
 -2.495831915637947E-005
 WARNING: Sub-Space-Matrix is not hermitian in DAV            4
 -2.495831915637947E-005
 WARNING: Sub-Space-Matrix is not hermitian in DAV            4
 -2.495831915637947E-005
 WARNING: Sub-Space-Matrix is not hermitian in DAV            4
 -2.495831915637947E-005
 WARNING: Sub-Space-Matrix is not hermitian in DAV            4
 -2.495831915637947E-005
 WARNING: Sub-Space-Matrix is not hermitian in DAV            4
 -2.495831915637947E-005
 WARNING: Sub-Space-Matrix is not hermitian in DAV            4
 -2.495831915637947E-005
 WARNING: Sub-Space-Matrix is not hermitian in DAV            4
 -2.495831915637947E-005
 WARNING: Sub-Space-Matrix is not hermitian in DAV            4
 -2.495831915637947E-005
 WARNING: Sub-Space-Matrix is not hermitian in DAV            4
 -2.495831915637947E-005
 WARNING: Sub-Space-Matrix is not hermitian in DAV            4
 -2.495831915637947E-005
 WARNING: Sub-Space-Matrix is not hermitian in DAV            4
 -2.495831915637947E-005
 WARNING: Sub-Space-Matrix is not hermitian in DAV            4
 WARNING: Sub-Space-Matrix is not hermitian in DAV            4
 -2.495831915637947E-005
 -2.495831915637947E-005
DAV:  71    -0.203978744356E+08   -0.14814E+08   -0.16912E+07  7904   0.648E+02BRMIX: very serious problems
 the old and the new charge density differ
 old charge density:   503.74372 new  481.24548
    0.814E+02
 WARNING: Sub-Space-Matrix is not hermitian in DAV            3
 -1.636073618926893E-005
 WARNING: Sub-Space-Matrix is not hermitian in DAV            3
 -1.636073618926893E-005
 WARNING: Sub-Space-Matrix is not hermitian in DAV            3
 -1.636073618926893E-005
 WARNING: Sub-Space-Matrix is not hermitian in DAV            3
 -1.636073618926893E-005
 WARNING: Sub-Space-Matrix is not hermitian in DAV            3
 -1.636073618926893E-005
 WARNING: Sub-Space-Matrix is not hermitian in DAV            3
 -1.636073618926893E-005
 WARNING: Sub-Space-Matrix is not hermitian in DAV            3
 -1.636073618926893E-005
 WARNING: Sub-Space-Matrix is not hermitian in DAV            3
 -1.636073618926893E-005
 WARNING: Sub-Space-Matrix is not hermitian in DAV            3
 -1.636073618926893E-005
 WARNING: Sub-Space-Matrix is not hermitian in DAV            3
 -1.636073618926893E-005
 WARNING: Sub-Space-Matrix is not hermitian in DAV            3
 -1.636073618926893E-005
 WARNING: Sub-Space-Matrix is not hermitian in DAV            3
 -1.636073618926893E-005
 WARNING: Sub-Space-Matrix is not hermitian in DAV            3
 -1.636073618926893E-005
 WARNING: Sub-Space-Matrix is not hermitian in DAV            3
 -1.636073618926893E-005
 WARNING: Sub-Space-Matrix is not hermitian in DAV            3
 -1.636073618926893E-005
 WARNING: Sub-Space-Matrix is not hermitian in DAV            3
 -1.636073618926893E-005
 WARNING: Sub-Space-Matrix is not hermitian in DAV            3
 WARNING: Sub-Space-Matrix is not hermitian in DAV            3
 -1.636073618926893E-005
 WARNING: Sub-Space-Matrix is not hermitian in DAV            3
 -1.636073618926893E-005
 WARNING: Sub-Space-Matrix is not hermitian in DAV            3
 -1.636073618926893E-005
 WARNING: Sub-Space-Matrix is not hermitian in DAV            3
 -1.636073618926893E-005
 WARNING: Sub-Space-Matrix is not hermitian in DAV            3
 -1.636073618926893E-005
 WARNING: Sub-Space-Matrix is not hermitian in DAV            3
 -1.636073618926893E-005
 WARNING: Sub-Space-Matrix is not hermitian in DAV            3
 -1.636073618926893E-005
 WARNING: Sub-Space-Matrix is not hermitian in DAV            3
 -1.636073618926893E-005
 WARNING: Sub-Space-Matrix is not hermitian in DAV            3
 -1.636073618926893E-005
 WARNING: Sub-Space-Matrix is not hermitian in DAV            3
 -1.636073618926893E-005
 WARNING: Sub-Space-Matrix is not hermitian in DAV            3
 -1.636073618926893E-005
 WARNING: Sub-Space-Matrix is not hermitian in DAV            3
 -1.636073618926893E-005
 WARNING: Sub-Space-Matrix is not hermitian in DAV            3
 -1.636073618926893E-005
 WARNING: Sub-Space-Matrix is not hermitian in DAV            3
 -1.636073618926893E-005
 WARNING: Sub-Space-Matrix is not hermitian in DAV            3
 -1.636073618926893E-005
 WARNING: Sub-Space-Matrix is not hermitian in DAV            3
 -1.636073618926893E-005
 WARNING: Sub-Space-Matrix is not hermitian in DAV            3
 -1.636073618926893E-005
 WARNING: Sub-Space-Matrix is not hermitian in DAV            3
 -1.636073618926893E-005
 WARNING: Sub-Space-Matrix is not hermitian in DAV            3
 -1.636073618926893E-005
 -1.636073618926893E-005
DAV:  72    -0.679834150282E+08   -0.47586E+08   -0.35086E+07  7976   0.634E+02BRMIX: very serious problems
 the old and the new charge density differ
 old charge density:   481.24548 new  468.90782
    0.108E+03
DAV:  73    -0.572337684663E+08    0.10750E+08   -0.21212E+08  8124   0.593E+02BRMIX: very serious problems
 the old and the new charge density differ
 old charge density:   468.90782 new  486.21078
    0.265E+03
 WARNING: Sub-Space-Matrix is not hermitian in DAV            8
 -1.071368477745869E-005
 WARNING: Sub-Space-Matrix is not hermitian in DAV            8
 -1.071368477745869E-005
 WARNING: Sub-Space-Matrix is not hermitian in DAV            8
 -1.071368477745869E-005
 WARNING: Sub-Space-Matrix is not hermitian in DAV            8
 -1.071368477745869E-005
 WARNING: Sub-Space-Matrix is not hermitian in DAV            8
 -1.071368477745869E-005
 WARNING: Sub-Space-Matrix is not hermitian in DAV            8
 -1.071368477745869E-005
 WARNING: Sub-Space-Matrix is not hermitian in DAV            8
 -1.071368477745869E-005
 WARNING: Sub-Space-Matrix is not hermitian in DAV            8
 -1.071368477745869E-005
 WARNING: Sub-Space-Matrix is not hermitian in DAV            8
 -1.071368477745869E-005
 WARNING: Sub-Space-Matrix is not hermitian in DAV            8
 -1.071368477745869E-005
 WARNING: Sub-Space-Matrix is not hermitian in DAV            8
 -1.071368477745869E-005
 WARNING: Sub-Space-Matrix is not hermitian in DAV            8
 -1.071368477745869E-005
 WARNING: Sub-Space-Matrix is not hermitian in DAV            8
 -1.071368477745869E-005
 WARNING: Sub-Space-Matrix is not hermitian in DAV            8
 -1.071368477745869E-005
 WARNING: Sub-Space-Matrix is not hermitian in DAV            8
 -1.071368477745869E-005
 WARNING: Sub-Space-Matrix is not hermitian in DAV            8
 -1.071368477745869E-005
 WARNING: Sub-Space-Matrix is not hermitian in DAV            8
 -1.071368477745869E-005
 WARNING: Sub-Space-Matrix is not hermitian in DAV            8
 -1.071368477745869E-005
 WARNING: Sub-Space-Matrix is not hermitian in DAV            8
 -1.071368477745869E-005
 WARNING: Sub-Space-Matrix is not hermitian in DAV            8
 -1.071368477745869E-005
 WARNING: Sub-Space-Matrix is not hermitian in DAV            8
 -1.071368477745869E-005
 WARNING: Sub-Space-Matrix is not hermitian in DAV            8
 -1.071368477745869E-005
 WARNING: Sub-Space-Matrix is not hermitian in DAV            8
 -1.071368477745869E-005
 WARNING: Sub-Space-Matrix is not hermitian in DAV            8
 -1.071368477745869E-005
 WARNING: Sub-Space-Matrix is not hermitian in DAV            8
 -1.071368477745869E-005
 WARNING: Sub-Space-Matrix is not hermitian in DAV            8
 WARNING: Sub-Space-Matrix is not hermitian in DAV            8
 -1.071368477745869E-005
 WARNING: Sub-Space-Matrix is not hermitian in DAV            8
 -1.071368477745869E-005
 WARNING: Sub-Space-Matrix is not hermitian in DAV            8
 -1.071368477745869E-005
 WARNING: Sub-Space-Matrix is not hermitian in DAV            8
 -1.071368477745869E-005
 WARNING: Sub-Space-Matrix is not hermitian in DAV            8
 -1.071368477745869E-005
 WARNING: Sub-Space-Matrix is not hermitian in DAV            8
 -1.071368477745869E-005
 WARNING: Sub-Space-Matrix is not hermitian in DAV            8
 -1.071368477745869E-005
 WARNING: Sub-Space-Matrix is not hermitian in DAV            8
 -1.071368477745869E-005
 WARNING: Sub-Space-Matrix is not hermitian in DAV            8
 -1.071368477745869E-005
 WARNING: Sub-Space-Matrix is not hermitian in DAV            8
 -1.071368477745869E-005
 -1.071368477745869E-005
DAV:  74    -0.773655721744E+07    0.49497E+08   -0.14727E+06  8032   0.652E+02BRMIX: very serious problems
 the old and the new charge density differ
 old charge density:   486.21078 new  472.90337
    0.783E+02
DAV:  75    -0.174821614706E+08   -0.97456E+07   -0.25027E+07  8064   0.581E+02BRMIX: very serious problems
 the old and the new charge density differ
 old charge density:   472.90337 new  478.08963
    0.158E+03
 WARNING: Sub-Space-Matrix is not hermitian in DAV            8
 -1.268297344259442E-005
 WARNING: Sub-Space-Matrix is not hermitian in DAV            8
 -1.268297344259442E-005
 WARNING: Sub-Space-Matrix is not hermitian in DAV            8
 -1.268297344259442E-005
 WARNING: Sub-Space-Matrix is not hermitian in DAV            8
 -1.268297344259442E-005
 WARNING: Sub-Space-Matrix is not hermitian in DAV            8
 -1.268297344259442E-005
 WARNING: Sub-Space-Matrix is not hermitian in DAV            8
 -1.268297344259442E-005
 WARNING: Sub-Space-Matrix is not hermitian in DAV            8
 -1.268297344259442E-005
 WARNING: Sub-Space-Matrix is not hermitian in DAV            8
 -1.268297344259442E-005
 WARNING: Sub-Space-Matrix is not hermitian in DAV            8
 -1.268297344259442E-005
 WARNING: Sub-Space-Matrix is not hermitian in DAV            8
 -1.268297344259442E-005
 WARNING: Sub-Space-Matrix is not hermitian in DAV            8
 -1.268297344259442E-005
 WARNING: Sub-Space-Matrix is not hermitian in DAV            8
 -1.268297344259442E-005
 WARNING: Sub-Space-Matrix is not hermitian in DAV            8
 -1.268297344259442E-005
 WARNING: Sub-Space-Matrix is not hermitian in DAV            8
 -1.268297344259442E-005
 WARNING: Sub-Space-Matrix is not hermitian in DAV            8
 -1.268297344259442E-005
 WARNING: Sub-Space-Matrix is not hermitian in DAV            8
 -1.268297344259442E-005
 WARNING: Sub-Space-Matrix is not hermitian in DAV            8
 WARNING: Sub-Space-Matrix is not hermitian in DAV            8
 -1.268297344259442E-005
 WARNING: Sub-Space-Matrix is not hermitian in DAV            8
 -1.268297344259442E-005
 WARNING: Sub-Space-Matrix is not hermitian in DAV            8
 -1.268297344259442E-005
 WARNING: Sub-Space-Matrix is not hermitian in DAV            8
 -1.268297344259442E-005
 WARNING: Sub-Space-Matrix is not hermitian in DAV            8
 -1.268297344259442E-005
 WARNING: Sub-Space-Matrix is not hermitian in DAV            8
 -1.268297344259442E-005
 WARNING: Sub-Space-Matrix is not hermitian in DAV            8
 -1.268297344259442E-005
 WARNING: Sub-Space-Matrix is not hermitian in DAV            8
 -1.268297344259442E-005
 WARNING: Sub-Space-Matrix is not hermitian in DAV            8
 -1.268297344259442E-005
 WARNING: Sub-Space-Matrix is not hermitian in DAV            8
 -1.268297344259442E-005
 WARNING: Sub-Space-Matrix is not hermitian in DAV            8
 -1.268297344259442E-005
 WARNING: Sub-Space-Matrix is not hermitian in DAV            8
 -1.268297344259442E-005
 WARNING: Sub-Space-Matrix is not hermitian in DAV            8
 -1.268297344259442E-005
 WARNING: Sub-Space-Matrix is not hermitian in DAV            8
 -1.268297344259442E-005
 WARNING: Sub-Space-Matrix is not hermitian in DAV            8
 -1.268297344259442E-005
 WARNING: Sub-Space-Matrix is not hermitian in DAV            8
 -1.268297344259442E-005
 WARNING: Sub-Space-Matrix is not hermitian in DAV            8
 -1.268297344259442E-005
 WARNING: Sub-Space-Matrix is not hermitian in DAV            8
 -1.268297344259442E-005
 WARNING: Sub-Space-Matrix is not hermitian in DAV            8
 -1.268297344259442E-005
 -1.268297344259442E-005
DAV:  76    -0.115353644769E+09   -0.97871E+08   -0.23096E+08  8296   0.653E+02BRMIX: very serious problems
 the old and the new charge density differ
 old charge density:   478.08963 new  495.09088
    0.186E+03
 WARNING: Sub-Space-Matrix is not hermitian in DAV           14
 -1.398333056865206E-005
 WARNING: Sub-Space-Matrix is not hermitian in DAV           14
 -1.398333056865206E-005
 WARNING: Sub-Space-Matrix is not hermitian in DAV           14
 -1.398333056865206E-005
 WARNING: Sub-Space-Matrix is not hermitian in DAV           14
 -1.398333056865206E-005
 WARNING: Sub-Space-Matrix is not hermitian in DAV           14
 -1.398333056865206E-005
 WARNING: Sub-Space-Matrix is not hermitian in DAV           14
 -1.398333056865206E-005
 WARNING: Sub-Space-Matrix is not hermitian in DAV           14
 -1.398333056865206E-005
 WARNING: Sub-Space-Matrix is not hermitian in DAV           14
 -1.398333056865206E-005
 WARNING: Sub-Space-Matrix is not hermitian in DAV           14
 -1.398333056865206E-005
 WARNING: Sub-Space-Matrix is not hermitian in DAV           14
 -1.398333056865206E-005
 WARNING: Sub-Space-Matrix is not hermitian in DAV           14
 -1.398333056865206E-005
 WARNING: Sub-Space-Matrix is not hermitian in DAV           14
 -1.398333056865206E-005
 WARNING: Sub-Space-Matrix is not hermitian in DAV           14
 -1.398333056865206E-005
 WARNING: Sub-Space-Matrix is not hermitian in DAV           14
 WARNING: Sub-Space-Matrix is not hermitian in DAV           14
 -1.398333056865206E-005
 WARNING: Sub-Space-Matrix is not hermitian in DAV           14
 -1.398333056865206E-005
 WARNING: Sub-Space-Matrix is not hermitian in DAV           14
 -1.398333056865206E-005
 WARNING: Sub-Space-Matrix is not hermitian in DAV           14
 -1.398333056865206E-005
 WARNING: Sub-Space-Matrix is not hermitian in DAV           14
 -1.398333056865206E-005
 WARNING: Sub-Space-Matrix is not hermitian in DAV           14
 -1.398333056865206E-005
 WARNING: Sub-Space-Matrix is not hermitian in DAV           14
 -1.398333056865206E-005
 WARNING: Sub-Space-Matrix is not hermitian in DAV           14
 -1.398333056865206E-005
 WARNING: Sub-Space-Matrix is not hermitian in DAV           14
 -1.398333056865206E-005
 WARNING: Sub-Space-Matrix is not hermitian in DAV           14
 -1.398333056865206E-005
 WARNING: Sub-Space-Matrix is not hermitian in DAV           14
 -1.398333056865206E-005
 WARNING: Sub-Space-Matrix is not hermitian in DAV           14
 -1.398333056865206E-005
 WARNING: Sub-Space-Matrix is not hermitian in DAV           14
 -1.398333056865206E-005
 WARNING: Sub-Space-Matrix is not hermitian in DAV           14
 -1.398333056865206E-005
 WARNING: Sub-Space-Matrix is not hermitian in DAV           14
 -1.398333056865206E-005
 WARNING: Sub-Space-Matrix is not hermitian in DAV           14
 -1.398333056865206E-005
 WARNING: Sub-Space-Matrix is not hermitian in DAV           14
 -1.398333056865206E-005
 WARNING: Sub-Space-Matrix is not hermitian in DAV           14
 -1.398333056865206E-005
 WARNING: Sub-Space-Matrix is not hermitian in DAV           14
 -1.398333056865206E-005
 WARNING: Sub-Space-Matrix is not hermitian in DAV           14
 -1.398333056865206E-005
 WARNING: Sub-Space-Matrix is not hermitian in DAV           14
 -1.398333056865206E-005
 WARNING: Sub-Space-Matrix is not hermitian in DAV           14
 -1.398333056865206E-005
 -1.398333056865206E-005
 WARNING: Sub-Space-Matrix is not hermitian in DAV           16
 -2.516097004350431E-005
 WARNING: Sub-Space-Matrix is not hermitian in DAV           16
 -2.516097004350431E-005
 WARNING: Sub-Space-Matrix is not hermitian in DAV           16
 -2.516097004350431E-005
 WARNING: Sub-Space-Matrix is not hermitian in DAV           16
 -2.516097004350431E-005
 WARNING: Sub-Space-Matrix is not hermitian in DAV           16
 -2.516097004350431E-005
 WARNING: Sub-Space-Matrix is not hermitian in DAV           16
 -2.516097004350431E-005
 WARNING: Sub-Space-Matrix is not hermitian in DAV           16
 -2.516097004350431E-005
 WARNING: Sub-Space-Matrix is not hermitian in DAV           16
 -2.516097004350431E-005
 WARNING: Sub-Space-Matrix is not hermitian in DAV           16
 -2.516097004350431E-005
 WARNING: Sub-Space-Matrix is not hermitian in DAV           16
 -2.516097004350431E-005
 WARNING: Sub-Space-Matrix is not hermitian in DAV           16
 -2.516097004350431E-005
 WARNING: Sub-Space-Matrix is not hermitian in DAV           16
 -2.516097004350431E-005
 WARNING: Sub-Space-Matrix is not hermitian in DAV           16
 -2.516097004350431E-005
 WARNING: Sub-Space-Matrix is not hermitian in DAV           16
 -2.516097004350431E-005
 WARNING: Sub-Space-Matrix is not hermitian in DAV           16
 -2.516097004350431E-005
 WARNING: Sub-Space-Matrix is not hermitian in DAV           16
 WARNING: Sub-Space-Matrix is not hermitian in DAV           16
 -2.516097004350431E-005
 WARNING: Sub-Space-Matrix is not hermitian in DAV           16
 -2.516097004350431E-005
 WARNING: Sub-Space-Matrix is not hermitian in DAV           16
 -2.516097004350431E-005
 WARNING: Sub-Space-Matrix is not hermitian in DAV           16
 -2.516097004350431E-005
 WARNING: Sub-Space-Matrix is not hermitian in DAV           16
 -2.516097004350431E-005
 WARNING: Sub-Space-Matrix is not hermitian in DAV           16
 -2.516097004350431E-005
 WARNING: Sub-Space-Matrix is not hermitian in DAV           16
 -2.516097004350431E-005
 WARNING: Sub-Space-Matrix is not hermitian in DAV           16
 -2.516097004350431E-005
 WARNING: Sub-Space-Matrix is not hermitian in DAV           16
 -2.516097004350431E-005
 WARNING: Sub-Space-Matrix is not hermitian in DAV           16
 -2.516097004350431E-005
 WARNING: Sub-Space-Matrix is not hermitian in DAV           16
 -2.516097004350431E-005
 WARNING: Sub-Space-Matrix is not hermitian in DAV           16
 -2.516097004350431E-005
 WARNING: Sub-Space-Matrix is not hermitian in DAV           16
 -2.516097004350431E-005
 WARNING: Sub-Space-Matrix is not hermitian in DAV           16
 -2.516097004350431E-005
 WARNING: Sub-Space-Matrix is not hermitian in DAV           16
 -2.516097004350431E-005
 WARNING: Sub-Space-Matrix is not hermitian in DAV           16
 -2.516097004350431E-005
 WARNING: Sub-Space-Matrix is not hermitian in DAV           16
 -2.516097004350431E-005
 WARNING: Sub-Space-Matrix is not hermitian in DAV           16
 -2.516097004350431E-005
 WARNING: Sub-Space-Matrix is not hermitian in DAV           16
 -2.516097004350431E-005
 WARNING: Sub-Space-Matrix is not hermitian in DAV           16
 -2.516097004350431E-005
 -2.516097004350431E-005
 WARNING: Sub-Space-Matrix is not hermitian in DAV            8
 -1.318899490051625E-005
 WARNING: Sub-Space-Matrix is not hermitian in DAV            8
 -1.318899490051625E-005
 WARNING: Sub-Space-Matrix is not hermitian in DAV            8
 -1.318899490051625E-005
 WARNING: Sub-Space-Matrix is not hermitian in DAV            8
 -1.318899490051625E-005
 WARNING: Sub-Space-Matrix is not hermitian in DAV            8
 -1.318899490051625E-005
 WARNING: Sub-Space-Matrix is not hermitian in DAV            8
 -1.318899490051625E-005
 WARNING: Sub-Space-Matrix is not hermitian in DAV            8
 -1.318899490051625E-005
 WARNING: Sub-Space-Matrix is not hermitian in DAV            8
 -1.318899490051625E-005
 WARNING: Sub-Space-Matrix is not hermitian in DAV            8
 -1.318899490051625E-005
 WARNING: Sub-Space-Matrix is not hermitian in DAV            8
 -1.318899490051625E-005
 WARNING: Sub-Space-Matrix is not hermitian in DAV            8
 -1.318899490051625E-005
 WARNING: Sub-Space-Matrix is not hermitian in DAV            8
 -1.318899490051625E-005
 WARNING: Sub-Space-Matrix is not hermitian in DAV            8
 -1.318899490051625E-005
 WARNING: Sub-Space-Matrix is not hermitian in DAV            8
 -1.318899490051625E-005
 WARNING: Sub-Space-Matrix is not hermitian in DAV            8
 -1.318899490051625E-005
 WARNING: Sub-Space-Matrix is not hermitian in DAV            8
 WARNING: Sub-Space-Matrix is not hermitian in DAV            8
 -1.318899490051625E-005
 WARNING: Sub-Space-Matrix is not hermitian in DAV            8
 -1.318899490051625E-005
 WARNING: Sub-Space-Matrix is not hermitian in DAV            8
 -1.318899490051625E-005
 WARNING: Sub-Space-Matrix is not hermitian in DAV            8
 -1.318899490051625E-005
 WARNING: Sub-Space-Matrix is not hermitian in DAV            8
 -1.318899490051625E-005
 WARNING: Sub-Space-Matrix is not hermitian in DAV            8
 -1.318899490051625E-005
 WARNING: Sub-Space-Matrix is not hermitian in DAV            8
 -1.318899490051625E-005
 WARNING: Sub-Space-Matrix is not hermitian in DAV            8
 -1.318899490051625E-005
 WARNING: Sub-Space-Matrix is not hermitian in DAV            8
 -1.318899490051625E-005
 WARNING: Sub-Space-Matrix is not hermitian in DAV            8
 -1.318899490051625E-005
 WARNING: Sub-Space-Matrix is not hermitian in DAV            8
 -1.318899490051625E-005
 WARNING: Sub-Space-Matrix is not hermitian in DAV            8
 -1.318899490051625E-005
 WARNING: Sub-Space-Matrix is not hermitian in DAV            8
 -1.318899490051625E-005
 WARNING: Sub-Space-Matrix is not hermitian in DAV            8
 -1.318899490051625E-005
 WARNING: Sub-Space-Matrix is not hermitian in DAV            8
 -1.318899490051625E-005
 WARNING: Sub-Space-Matrix is not hermitian in DAV            8
 -1.318899490051625E-005
 WARNING: Sub-Space-Matrix is not hermitian in DAV            8
 -1.318899490051625E-005
 WARNING: Sub-Space-Matrix is not hermitian in DAV            8
 -1.318899490051625E-005
 WARNING: Sub-Space-Matrix is not hermitian in DAV            8
 -1.318899490051625E-005
 WARNING: Sub-Space-Matrix is not hermitian in DAV            8
 -1.318899490051625E-005
 -1.318899490051625E-005
DAV:  77    -0.109804274668E+09    0.55494E+07   -0.38486E+07  8336   0.629E+02BRMIX: very serious problems
 the old and the new charge density differ
 old charge density:   495.09088 new  484.37936
    0.205E+03
 WARNING: Sub-Space-Matrix is not hermitian in DAV            6
 -1.344637158508626E-005
 WARNING: Sub-Space-Matrix is not hermitian in DAV            6
 -1.344637158508626E-005
 WARNING: Sub-Space-Matrix is not hermitian in DAV            6
 -1.344637158508626E-005
 WARNING: Sub-Space-Matrix is not hermitian in DAV            6
 -1.344637158508626E-005
 WARNING: Sub-Space-Matrix is not hermitian in DAV            6
 -1.344637158508626E-005
 WARNING: Sub-Space-Matrix is not hermitian in DAV            6
 -1.344637158508626E-005
 WARNING: Sub-Space-Matrix is not hermitian in DAV            6
 -1.344637158508626E-005
 WARNING: Sub-Space-Matrix is not hermitian in DAV            6
 -1.344637158508626E-005
 WARNING: Sub-Space-Matrix is not hermitian in DAV            6
 -1.344637158508626E-005
 WARNING: Sub-Space-Matrix is not hermitian in DAV            6
 WARNING: Sub-Space-Matrix is not hermitian in DAV            6
 -1.344637158508626E-005
 WARNING: Sub-Space-Matrix is not hermitian in DAV            6
 -1.344637158508626E-005
 WARNING: Sub-Space-Matrix is not hermitian in DAV            6
 -1.344637158508626E-005
 WARNING: Sub-Space-Matrix is not hermitian in DAV            6
 -1.344637158508626E-005
 WARNING: Sub-Space-Matrix is not hermitian in DAV            6
 -1.344637158508626E-005
 WARNING: Sub-Space-Matrix is not hermitian in DAV            6
 -1.344637158508626E-005
 WARNING: Sub-Space-Matrix is not hermitian in DAV            6
 -1.344637158508626E-005
 WARNING: Sub-Space-Matrix is not hermitian in DAV            6
 -1.344637158508626E-005
 WARNING: Sub-Space-Matrix is not hermitian in DAV            6
 -1.344637158508626E-005
 WARNING: Sub-Space-Matrix is not hermitian in DAV            6
 -1.344637158508626E-005
 WARNING: Sub-Space-Matrix is not hermitian in DAV            6
 -1.344637158508626E-005
 WARNING: Sub-Space-Matrix is not hermitian in DAV            6
 -1.344637158508626E-005
 WARNING: Sub-Space-Matrix is not hermitian in DAV            6
 -1.344637158508626E-005
 WARNING: Sub-Space-Matrix is not hermitian in DAV            6
 -1.344637158508626E-005
 WARNING: Sub-Space-Matrix is not hermitian in DAV            6
 -1.344637158508626E-005
 WARNING: Sub-Space-Matrix is not hermitian in DAV            6
 -1.344637158508626E-005
 WARNING: Sub-Space-Matrix is not hermitian in DAV            6
 -1.344637158508626E-005
 WARNING: Sub-Space-Matrix is not hermitian in DAV            6
 -1.344637158508626E-005
 WARNING: Sub-Space-Matrix is not hermitian in DAV            6
 -1.344637158508626E-005
 WARNING: Sub-Space-Matrix is not hermitian in DAV            6
 -1.344637158508626E-005
 WARNING: Sub-Space-Matrix is not hermitian in DAV            6
 -1.344637158508626E-005
 WARNING: Sub-Space-Matrix is not hermitian in DAV            6
 -1.344637158508626E-005
 WARNING: Sub-Space-Matrix is not hermitian in DAV            6
 -1.344637158508626E-005
 WARNING: Sub-Space-Matrix is not hermitian in DAV            6
 -1.344637158508626E-005
 WARNING: Sub-Space-Matrix is not hermitian in DAV            6
 -1.344637158508626E-005
 WARNING: Sub-Space-Matrix is not hermitian in DAV            6
 -1.344637158508626E-005
 -1.344637158508626E-005
DAV:  78    -0.220382347167E+08    0.87766E+08   -0.38894E+06  8276   0.622E+02BRMIX: very serious problems
 the old and the new charge density differ
 old charge density:   484.37936 new  478.07183
    0.104E+03
 WARNING: Sub-Space-Matrix is not hermitian in DAV            7
 -1.270333498923136E-005
 WARNING: Sub-Space-Matrix is not hermitian in DAV            7
 -1.270333498923136E-005
 WARNING: Sub-Space-Matrix is not hermitian in DAV            7
 -1.270333498923136E-005
 WARNING: Sub-Space-Matrix is not hermitian in DAV            7
 -1.270333498923136E-005
 WARNING: Sub-Space-Matrix is not hermitian in DAV            7
 -1.270333498923136E-005
 WARNING: Sub-Space-Matrix is not hermitian in DAV            7
 -1.270333498923136E-005
 WARNING: Sub-Space-Matrix is not hermitian in DAV            7
 -1.270333498923136E-005
 WARNING: Sub-Space-Matrix is not hermitian in DAV            7
 -1.270333498923136E-005
 WARNING: Sub-Space-Matrix is not hermitian in DAV            7
 -1.270333498923136E-005
 WARNING: Sub-Space-Matrix is not hermitian in DAV            7
 -1.270333498923136E-005
 WARNING: Sub-Space-Matrix is not hermitian in DAV            7
 -1.270333498923136E-005
 WARNING: Sub-Space-Matrix is not hermitian in DAV            7
 -1.270333498923136E-005
 WARNING: Sub-Space-Matrix is not hermitian in DAV            7
 -1.270333498923136E-005
 WARNING: Sub-Space-Matrix is not hermitian in DAV            7
 -1.270333498923136E-005
 WARNING: Sub-Space-Matrix is not hermitian in DAV            7
 -1.270333498923136E-005
 WARNING: Sub-Space-Matrix is not hermitian in DAV            7
 -1.270333498923136E-005
 WARNING: Sub-Space-Matrix is not hermitian in DAV            7
 -1.270333498923136E-005
 WARNING: Sub-Space-Matrix is not hermitian in DAV            7
 -1.270333498923136E-005
 WARNING: Sub-Space-Matrix is not hermitian in DAV            7
 -1.270333498923136E-005
 WARNING: Sub-Space-Matrix is not hermitian in DAV            7
 -1.270333498923136E-005
 WARNING: Sub-Space-Matrix is not hermitian in DAV            7
 -1.270333498923136E-005
 WARNING: Sub-Space-Matrix is not hermitian in DAV            7
 -1.270333498923136E-005
 WARNING: Sub-Space-Matrix is not hermitian in DAV            7
 -1.270333498923136E-005
 WARNING: Sub-Space-Matrix is not hermitian in DAV            7
 -1.270333498923136E-005
 WARNING: Sub-Space-Matrix is not hermitian in DAV            7
 -1.270333498923136E-005
 WARNING: Sub-Space-Matrix is not hermitian in DAV            7
 -1.270333498923136E-005
 WARNING: Sub-Space-Matrix is not hermitian in DAV            7
 -1.270333498923136E-005
 WARNING: Sub-Space-Matrix is not hermitian in DAV            7
 -1.270333498923136E-005
 WARNING: Sub-Space-Matrix is not hermitian in DAV            7
 WARNING: Sub-Space-Matrix is not hermitian in DAV            7
 -1.270333498923136E-005
 WARNING: Sub-Space-Matrix is not hermitian in DAV            7
 -1.270333498923136E-005
 WARNING: Sub-Space-Matrix is not hermitian in DAV            7
 -1.270333498923136E-005
 WARNING: Sub-Space-Matrix is not hermitian in DAV            7
 -1.270333498923136E-005
 WARNING: Sub-Space-Matrix is not hermitian in DAV            7
 -1.270333498923136E-005
 WARNING: Sub-Space-Matrix is not hermitian in DAV            7
 -1.270333498923136E-005
 WARNING: Sub-Space-Matrix is not hermitian in DAV            7
 -1.270333498923136E-005
 -1.270333498923136E-005
 WARNING: Sub-Space-Matrix is not hermitian in DAV            1
 -1.664551683979070E-005
 WARNING: Sub-Space-Matrix is not hermitian in DAV            1
 -1.664551683979070E-005
 WARNING: Sub-Space-Matrix is not hermitian in DAV            1
 -1.664551683979070E-005
 WARNING: Sub-Space-Matrix is not hermitian in DAV            1
 -1.664551683979070E-005
 WARNING: Sub-Space-Matrix is not hermitian in DAV            1
 -1.664551683979070E-005
 WARNING: Sub-Space-Matrix is not hermitian in DAV            1
 -1.664551683979070E-005
 WARNING: Sub-Space-Matrix is not hermitian in DAV            1
 -1.664551683979070E-005
 WARNING: Sub-Space-Matrix is not hermitian in DAV            1
 -1.664551683979070E-005
 WARNING: Sub-Space-Matrix is not hermitian in DAV            1
 -1.664551683979070E-005
 WARNING: Sub-Space-Matrix is not hermitian in DAV            1
 -1.664551683979070E-005
 WARNING: Sub-Space-Matrix is not hermitian in DAV            1
 -1.664551683979070E-005
 WARNING: Sub-Space-Matrix is not hermitian in DAV            1
 -1.664551683979070E-005
 WARNING: Sub-Space-Matrix is not hermitian in DAV            1
 -1.664551683979070E-005
 WARNING: Sub-Space-Matrix is not hermitian in DAV            1
 -1.664551683979070E-005
 WARNING: Sub-Space-Matrix is not hermitian in DAV            1
 -1.664551683979070E-005
 WARNING: Sub-Space-Matrix is not hermitian in DAV            1
 -1.664551683979070E-005
 WARNING: Sub-Space-Matrix is not hermitian in DAV            1
 -1.664551683979070E-005
 WARNING: Sub-Space-Matrix is not hermitian in DAV            1
 -1.664551683979070E-005
 WARNING: Sub-Space-Matrix is not hermitian in DAV            1
 -1.664551683979070E-005
 WARNING: Sub-Space-Matrix is not hermitian in DAV            1
 -1.664551683979070E-005
 WARNING: Sub-Space-Matrix is not hermitian in DAV            1
 -1.664551683979070E-005
 WARNING: Sub-Space-Matrix is not hermitian in DAV            1
 -1.664551683979070E-005
 WARNING: Sub-Space-Matrix is not hermitian in DAV            1
 -1.664551683979070E-005
 WARNING: Sub-Space-Matrix is not hermitian in DAV            1
 -1.664551683979070E-005
 WARNING: Sub-Space-Matrix is not hermitian in DAV            1
 -1.664551683979070E-005
 WARNING: Sub-Space-Matrix is not hermitian in DAV            1
 -1.664551683979070E-005
 WARNING: Sub-Space-Matrix is not hermitian in DAV            1
 -1.664551683979070E-005
 WARNING: Sub-Space-Matrix is not hermitian in DAV            1
 -1.664551683979070E-005
 WARNING: Sub-Space-Matrix is not hermitian in DAV            1
 -1.664551683979070E-005
 WARNING: Sub-Space-Matrix is not hermitian in DAV            1
 -1.664551683979070E-005
 WARNING: Sub-Space-Matrix is not hermitian in DAV            1
 -1.664551683979070E-005
 WARNING: Sub-Space-Matrix is not hermitian in DAV            1
 -1.664551683979070E-005
 WARNING: Sub-Space-Matrix is not hermitian in DAV            1
 -1.664551683979070E-005
 WARNING: Sub-Space-Matrix is not hermitian in DAV            1
 -1.664551683979070E-005
 WARNING: Sub-Space-Matrix is not hermitian in DAV            1
 -1.664551683979070E-005
 WARNING: Sub-Space-Matrix is not hermitian in DAV            1
 -1.664551683979070E-005
DAV:  79    -0.504766989284E+08   -0.28438E+08   -0.20523E+08  8444   0.581E+02BRMIX: very serious problems
 the old and the new charge density differ
 old charge density:   478.07183 new  473.47251
    0.304E+03
 WARNING: Sub-Space-Matrix is not hermitian in DAV            6
 -1.045671486738939E-005
 WARNING: Sub-Space-Matrix is not hermitian in DAV            6
 -1.045671486738939E-005
 WARNING: Sub-Space-Matrix is not hermitian in DAV            6
 -1.045671486738939E-005
 WARNING: Sub-Space-Matrix is not hermitian in DAV            6
 -1.045671486738939E-005
 WARNING: Sub-Space-Matrix is not hermitian in DAV            6
 -1.045671486738939E-005
 WARNING: Sub-Space-Matrix is not hermitian in DAV            6
 -1.045671486738939E-005
 WARNING: Sub-Space-Matrix is not hermitian in DAV            6
 -1.045671486738939E-005
 WARNING: Sub-Space-Matrix is not hermitian in DAV            6
 -1.045671486738939E-005
 WARNING: Sub-Space-Matrix is not hermitian in DAV            6
 -1.045671486738939E-005
 WARNING: Sub-Space-Matrix is not hermitian in DAV            6
 -1.045671486738939E-005
 WARNING: Sub-Space-Matrix is not hermitian in DAV            6
 -1.045671486738939E-005
 WARNING: Sub-Space-Matrix is not hermitian in DAV            6
 -1.045671486738939E-005
 WARNING: Sub-Space-Matrix is not hermitian in DAV            6
 -1.045671486738939E-005
 WARNING: Sub-Space-Matrix is not hermitian in DAV            6
 -1.045671486738939E-005
 WARNING: Sub-Space-Matrix is not hermitian in DAV            6
 -1.045671486738939E-005
 WARNING: Sub-Space-Matrix is not hermitian in DAV            6
 WARNING: Sub-Space-Matrix is not hermitian in DAV            6
 -1.045671486738939E-005
 WARNING: Sub-Space-Matrix is not hermitian in DAV            6
 -1.045671486738939E-005
 WARNING: Sub-Space-Matrix is not hermitian in DAV            6
 -1.045671486738939E-005
 WARNING: Sub-Space-Matrix is not hermitian in DAV            6
 -1.045671486738939E-005
 WARNING: Sub-Space-Matrix is not hermitian in DAV            6
 -1.045671486738939E-005
 WARNING: Sub-Space-Matrix is not hermitian in DAV            6
 -1.045671486738939E-005
 WARNING: Sub-Space-Matrix is not hermitian in DAV            6
 -1.045671486738939E-005
 WARNING: Sub-Space-Matrix is not hermitian in DAV            6
 -1.045671486738939E-005
 WARNING: Sub-Space-Matrix is not hermitian in DAV            6
 -1.045671486738939E-005
 WARNING: Sub-Space-Matrix is not hermitian in DAV            6
 -1.045671486738939E-005
 WARNING: Sub-Space-Matrix is not hermitian in DAV            6
 -1.045671486738939E-005
 WARNING: Sub-Space-Matrix is not hermitian in DAV            6
 -1.045671486738939E-005
 WARNING: Sub-Space-Matrix is not hermitian in DAV            6
 -1.045671486738939E-005
 WARNING: Sub-Space-Matrix is not hermitian in DAV            6
 -1.045671486738939E-005
 WARNING: Sub-Space-Matrix is not hermitian in DAV            6
 -1.045671486738939E-005
 WARNING: Sub-Space-Matrix is not hermitian in DAV            6
 -1.045671486738939E-005
 WARNING: Sub-Space-Matrix is not hermitian in DAV            6
 -1.045671486738939E-005
 WARNING: Sub-Space-Matrix is not hermitian in DAV            6
 -1.045671486738939E-005
 WARNING: Sub-Space-Matrix is not hermitian in DAV            6
 -1.045671486738939E-005
 WARNING: Sub-Space-Matrix is not hermitian in DAV            6
 -1.045671486738939E-005
 -1.045671486738939E-005
 WARNING: Sub-Space-Matrix is not hermitian in DAV           24
  3.876076841489918E-005
 WARNING: Sub-Space-Matrix is not hermitian in DAV           24
  3.876076841489918E-005
 WARNING: Sub-Space-Matrix is not hermitian in DAV           24
  3.876076841489918E-005
 WARNING: Sub-Space-Matrix is not hermitian in DAV           24
  3.876076841489918E-005
 WARNING: Sub-Space-Matrix is not hermitian in DAV           24
  3.876076841489918E-005
 WARNING: Sub-Space-Matrix is not hermitian in DAV           24
 WARNING: Sub-Space-Matrix is not hermitian in DAV           24
  3.876076841489918E-005
 WARNING: Sub-Space-Matrix is not hermitian in DAV           24
  3.876076841489918E-005
 WARNING: Sub-Space-Matrix is not hermitian in DAV           24
  3.876076841489918E-005
 WARNING: Sub-Space-Matrix is not hermitian in DAV           24
  3.876076841489918E-005
 WARNING: Sub-Space-Matrix is not hermitian in DAV           24
  3.876076841489918E-005
 WARNING: Sub-Space-Matrix is not hermitian in DAV           24
  3.876076841489918E-005
 WARNING: Sub-Space-Matrix is not hermitian in DAV           24
  3.876076841489918E-005
 WARNING: Sub-Space-Matrix is not hermitian in DAV           24
  3.876076841489918E-005
 WARNING: Sub-Space-Matrix is not hermitian in DAV           24
  3.876076841489918E-005
 WARNING: Sub-Space-Matrix is not hermitian in DAV           24
  3.876076841489918E-005
 WARNING: Sub-Space-Matrix is not hermitian in DAV           24
  3.876076841489918E-005
 WARNING: Sub-Space-Matrix is not hermitian in DAV           24
  3.876076841489918E-005
 WARNING: Sub-Space-Matrix is not hermitian in DAV           24
  3.876076841489918E-005
 WARNING: Sub-Space-Matrix is not hermitian in DAV           24
  3.876076841489918E-005
 WARNING: Sub-Space-Matrix is not hermitian in DAV           24
  3.876076841489918E-005
 WARNING: Sub-Space-Matrix is not hermitian in DAV           24
  3.876076841489918E-005
 WARNING: Sub-Space-Matrix is not hermitian in DAV           24
  3.876076841489918E-005
 WARNING: Sub-Space-Matrix is not hermitian in DAV           24
  3.876076841489918E-005
 WARNING: Sub-Space-Matrix is not hermitian in DAV           24
  3.876076841489918E-005
 WARNING: Sub-Space-Matrix is not hermitian in DAV           24
  3.876076841489918E-005
 WARNING: Sub-Space-Matrix is not hermitian in DAV           24
  3.876076841489918E-005
 WARNING: Sub-Space-Matrix is not hermitian in DAV           24
  3.876076841489918E-005
 WARNING: Sub-Space-Matrix is not hermitian in DAV           24
  3.876076841489918E-005
 WARNING: Sub-Space-Matrix is not hermitian in DAV           24
  3.876076841489918E-005
 WARNING: Sub-Space-Matrix is not hermitian in DAV           24
  3.876076841489918E-005
 WARNING: Sub-Space-Matrix is not hermitian in DAV           24
  3.876076841489918E-005
 WARNING: Sub-Space-Matrix is not hermitian in DAV           24
  3.876076841489918E-005
 WARNING: Sub-Space-Matrix is not hermitian in DAV           24
  3.876076841489918E-005
 WARNING: Sub-Space-Matrix is not hermitian in DAV           24
  3.876076841489918E-005
 WARNING: Sub-Space-Matrix is not hermitian in DAV           24
  3.876076841489918E-005
  3.876076841489918E-005
 WARNING: Sub-Space-Matrix is not hermitian in DAV            6
 -1.191394271694628E-005
 WARNING: Sub-Space-Matrix is not hermitian in DAV            6
 -1.191394271694628E-005
 WARNING: Sub-Space-Matrix is not hermitian in DAV            6
 -1.191394271694628E-005
 WARNING: Sub-Space-Matrix is not hermitian in DAV            6
 -1.191394271694628E-005
 WARNING: Sub-Space-Matrix is not hermitian in DAV            6
 -1.191394271694628E-005
 WARNING: Sub-Space-Matrix is not hermitian in DAV            6
 -1.191394271694628E-005
 WARNING: Sub-Space-Matrix is not hermitian in DAV            6
 -1.191394271694628E-005
 WARNING: Sub-Space-Matrix is not hermitian in DAV            6
 -1.191394271694628E-005
 WARNING: Sub-Space-Matrix is not hermitian in DAV            6
 WARNING: Sub-Space-Matrix is not hermitian in DAV            6
 -1.191394271694628E-005
 WARNING: Sub-Space-Matrix is not hermitian in DAV            6
 -1.191394271694628E-005
 WARNING: Sub-Space-Matrix is not hermitian in DAV            6
 -1.191394271694628E-005
 WARNING: Sub-Space-Matrix is not hermitian in DAV            6
 -1.191394271694628E-005
 WARNING: Sub-Space-Matrix is not hermitian in DAV            6
 -1.191394271694628E-005
 WARNING: Sub-Space-Matrix is not hermitian in DAV            6
 -1.191394271694628E-005
 WARNING: Sub-Space-Matrix is not hermitian in DAV            6
 -1.191394271694628E-005
 WARNING: Sub-Space-Matrix is not hermitian in DAV            6
 -1.191394271694628E-005
 WARNING: Sub-Space-Matrix is not hermitian in DAV            6
 -1.191394271694628E-005
 WARNING: Sub-Space-Matrix is not hermitian in DAV            6
 -1.191394271694628E-005
 WARNING: Sub-Space-Matrix is not hermitian in DAV            6
 -1.191394271694628E-005
 WARNING: Sub-Space-Matrix is not hermitian in DAV            6
 -1.191394271694628E-005
 WARNING: Sub-Space-Matrix is not hermitian in DAV            6
 -1.191394271694628E-005
 WARNING: Sub-Space-Matrix is not hermitian in DAV            6
 -1.191394271694628E-005
 WARNING: Sub-Space-Matrix is not hermitian in DAV            6
 -1.191394271694628E-005
 WARNING: Sub-Space-Matrix is not hermitian in DAV            6
 -1.191394271694628E-005
 WARNING: Sub-Space-Matrix is not hermitian in DAV            6
 -1.191394271694628E-005
 WARNING: Sub-Space-Matrix is not hermitian in DAV            6
 -1.191394271694628E-005
 WARNING: Sub-Space-Matrix is not hermitian in DAV            6
 -1.191394271694628E-005
 WARNING: Sub-Space-Matrix is not hermitian in DAV            6
 -1.191394271694628E-005
 WARNING: Sub-Space-Matrix is not hermitian in DAV            6
 -1.191394271694628E-005
 WARNING: Sub-Space-Matrix is not hermitian in DAV            6
 -1.191394271694628E-005
 WARNING: Sub-Space-Matrix is not hermitian in DAV            6
 -1.191394271694628E-005
 WARNING: Sub-Space-Matrix is not hermitian in DAV            6
 -1.191394271694628E-005
 WARNING: Sub-Space-Matrix is not hermitian in DAV            6
 -1.191394271694628E-005
 WARNING: Sub-Space-Matrix is not hermitian in DAV            6
 -1.191394271694628E-005
 WARNING: Sub-Space-Matrix is not hermitian in DAV            6
 -1.191394271694628E-005
 -1.191394271694628E-005
DAV:  80    -0.324211669991E+08    0.18056E+08   -0.51095E+07  8008   0.611E+02BRMIX: very serious problems
 the old and the new charge density differ
 old charge density:   473.47251 new  460.92087
    0.214E+03
DAV:  81    -0.845533936706E+08   -0.52132E+08   -0.10243E+08  7932   0.607E+02BRMIX: very serious problems
 the old and the new charge density differ
 old charge density:   460.92087 new  462.97332
    0.220E+03
 WARNING: Sub-Space-Matrix is not hermitian in DAV            1
 -2.985703585066234E-005
 WARNING: Sub-Space-Matrix is not hermitian in DAV            1
 -2.985703585066234E-005
 WARNING: Sub-Space-Matrix is not hermitian in DAV            1
 -2.985703585066234E-005
 WARNING: Sub-Space-Matrix is not hermitian in DAV            1
 -2.985703585066234E-005
 WARNING: Sub-Space-Matrix is not hermitian in DAV            1
 -2.985703585066234E-005
 WARNING: Sub-Space-Matrix is not hermitian in DAV            1
 -2.985703585066234E-005
 WARNING: Sub-Space-Matrix is not hermitian in DAV            1
 -2.985703585066234E-005
 WARNING: Sub-Space-Matrix is not hermitian in DAV            1
 -2.985703585066234E-005
 WARNING: Sub-Space-Matrix is not hermitian in DAV            1
 -2.985703585066234E-005
 WARNING: Sub-Space-Matrix is not hermitian in DAV            1
 -2.985703585066234E-005
 WARNING: Sub-Space-Matrix is not hermitian in DAV            1
 -2.985703585066234E-005
 WARNING: Sub-Space-Matrix is not hermitian in DAV            1
 -2.985703585066234E-005
 WARNING: Sub-Space-Matrix is not hermitian in DAV            1
 -2.985703585066234E-005
 WARNING: Sub-Space-Matrix is not hermitian in DAV            1
 -2.985703585066234E-005
 WARNING: Sub-Space-Matrix is not hermitian in DAV            1
 -2.985703585066234E-005
 WARNING: Sub-Space-Matrix is not hermitian in DAV            1
 -2.985703585066234E-005
 WARNING: Sub-Space-Matrix is not hermitian in DAV            1
 -2.985703585066234E-005
 WARNING: Sub-Space-Matrix is not hermitian in DAV            1
 -2.985703585066234E-005
 WARNING: Sub-Space-Matrix is not hermitian in DAV            1
 -2.985703585066234E-005
 WARNING: Sub-Space-Matrix is not hermitian in DAV            1
 -2.985703585066234E-005
 WARNING: Sub-Space-Matrix is not hermitian in DAV            1
 WARNING: Sub-Space-Matrix is not hermitian in DAV            1
 -2.985703585066234E-005
 WARNING: Sub-Space-Matrix is not hermitian in DAV            1
 -2.985703585066234E-005
 WARNING: Sub-Space-Matrix is not hermitian in DAV            1
 -2.985703585066234E-005
 WARNING: Sub-Space-Matrix is not hermitian in DAV            1
 -2.985703585066234E-005
 WARNING: Sub-Space-Matrix is not hermitian in DAV            1
 -2.985703585066234E-005
 WARNING: Sub-Space-Matrix is not hermitian in DAV            1
 -2.985703585066234E-005
 WARNING: Sub-Space-Matrix is not hermitian in DAV            1
 -2.985703585066234E-005
 WARNING: Sub-Space-Matrix is not hermitian in DAV            1
 -2.985703585066234E-005
 WARNING: Sub-Space-Matrix is not hermitian in DAV            1
 -2.985703585066234E-005
 WARNING: Sub-Space-Matrix is not hermitian in DAV            1
 -2.985703585066234E-005
 WARNING: Sub-Space-Matrix is not hermitian in DAV            1
 -2.985703585066234E-005
 WARNING: Sub-Space-Matrix is not hermitian in DAV            1
 -2.985703585066234E-005
 WARNING: Sub-Space-Matrix is not hermitian in DAV            1
 -2.985703585066234E-005
 WARNING: Sub-Space-Matrix is not hermitian in DAV            1
 -2.985703585066234E-005
 WARNING: Sub-Space-Matrix is not hermitian in DAV            1
 -2.985703585066234E-005
 -2.985703585066234E-005
DAV:  82    -0.888143556132E+08   -0.42610E+07   -0.12601E+08  8152   0.592E+02BRMIX: very serious problems
 the old and the new charge density differ
 old charge density:   462.97332 new  476.89627
    0.207E+03
 WARNING: Sub-Space-Matrix is not hermitian in DAV            9
  1.096308164878804E-004
 WARNING: Sub-Space-Matrix is not hermitian in DAV            9
  1.096308164878804E-004
 WARNING: Sub-Space-Matrix is not hermitian in DAV            9
  1.096308164878804E-004
 WARNING: Sub-Space-Matrix is not hermitian in DAV            9
  1.096308164878804E-004
 WARNING: Sub-Space-Matrix is not hermitian in DAV            9
  1.096308164878804E-004
 WARNING: Sub-Space-Matrix is not hermitian in DAV            9
  1.096308164878804E-004
 WARNING: Sub-Space-Matrix is not hermitian in DAV            9
  1.096308164878804E-004
 WARNING: Sub-Space-Matrix is not hermitian in DAV            9
  1.096308164878804E-004
 WARNING: Sub-Space-Matrix is not hermitian in DAV            9
  1.096308164878804E-004
 WARNING: Sub-Space-Matrix is not hermitian in DAV            9
  1.096308164878804E-004
 WARNING: Sub-Space-Matrix is not hermitian in DAV            9
  1.096308164878804E-004
 WARNING: Sub-Space-Matrix is not hermitian in DAV            9
  1.096308164878804E-004
 WARNING: Sub-Space-Matrix is not hermitian in DAV            9
  1.096308164878804E-004
 WARNING: Sub-Space-Matrix is not hermitian in DAV            9
  1.096308164878804E-004
 WARNING: Sub-Space-Matrix is not hermitian in DAV            9
 WARNING: Sub-Space-Matrix is not hermitian in DAV            9
  1.096308164878804E-004
 WARNING: Sub-Space-Matrix is not hermitian in DAV            9
  1.096308164878804E-004
 WARNING: Sub-Space-Matrix is not hermitian in DAV            9
  1.096308164878804E-004
 WARNING: Sub-Space-Matrix is not hermitian in DAV            9
  1.096308164878804E-004
 WARNING: Sub-Space-Matrix is not hermitian in DAV            9
  1.096308164878804E-004
 WARNING: Sub-Space-Matrix is not hermitian in DAV            9
  1.096308164878804E-004
 WARNING: Sub-Space-Matrix is not hermitian in DAV            9
  1.096308164878804E-004
 WARNING: Sub-Space-Matrix is not hermitian in DAV            9
  1.096308164878804E-004
 WARNING: Sub-Space-Matrix is not hermitian in DAV            9
  1.096308164878804E-004
 WARNING: Sub-Space-Matrix is not hermitian in DAV            9
  1.096308164878804E-004
 WARNING: Sub-Space-Matrix is not hermitian in DAV            9
  1.096308164878804E-004
 WARNING: Sub-Space-Matrix is not hermitian in DAV            9
  1.096308164878804E-004
 WARNING: Sub-Space-Matrix is not hermitian in DAV            9
  1.096308164878804E-004
 WARNING: Sub-Space-Matrix is not hermitian in DAV            9
  1.096308164878804E-004
 WARNING: Sub-Space-Matrix is not hermitian in DAV            9
  1.096308164878804E-004
 WARNING: Sub-Space-Matrix is not hermitian in DAV            9
  1.096308164878804E-004
 WARNING: Sub-Space-Matrix is not hermitian in DAV            9
  1.096308164878804E-004
 WARNING: Sub-Space-Matrix is not hermitian in DAV            9
  1.096308164878804E-004
 WARNING: Sub-Space-Matrix is not hermitian in DAV            9
  1.096308164878804E-004
 WARNING: Sub-Space-Matrix is not hermitian in DAV            9
  1.096308164878804E-004
 WARNING: Sub-Space-Matrix is not hermitian in DAV            9
  1.096308164878804E-004
  1.096308164878804E-004
[...]
  9.985487101164244E-004
 WARNING: Sub-Space-Matrix is not hermitian in DAV           10
  9.985487101164244E-004
 WARNING: Sub-Space-Matrix is not hermitian in DAV           10
  9.985487101164244E-004
 WARNING: Sub-Space-Matrix is not hermitian in DAV           10
  9.985487101164244E-004
 WARNING: Sub-Space-Matrix is not hermitian in DAV           10
  9.985487101164244E-004
 WARNING: Sub-Space-Matrix is not hermitian in DAV           10
  9.985487101164244E-004
 WARNING: Sub-Space-Matrix is not hermitian in DAV           10
  9.985487101164244E-004
 WARNING: Sub-Space-Matrix is not hermitian in DAV           10
  9.985487101164244E-004
  9.985487101164244E-004
 WARNING: Sub-Space-Matrix is not hermitian in DAV            5
  2.099229025956226E-005
 WARNING: Sub-Space-Matrix is not hermitian in DAV            5
  2.099229025956226E-005
 WARNING: Sub-Space-Matrix is not hermitian in DAV            5
  2.099229025956226E-005
 WARNING: Sub-Space-Matrix is not hermitian in DAV            5
  2.099229025956226E-005
 WARNING: Sub-Space-Matrix is not hermitian in DAV            5
  2.099229025956226E-005
 WARNING: Sub-Space-Matrix is not hermitian in DAV            5
  2.099229025956226E-005
 WARNING: Sub-Space-Matrix is not hermitian in DAV            5
  2.099229025956226E-005
 WARNING: Sub-Space-Matrix is not hermitian in DAV            5
  2.099229025956226E-005
 WARNING: Sub-Space-Matrix is not hermitian in DAV            5
  2.099229025956226E-005
 WARNING: Sub-Space-Matrix is not hermitian in DAV            5
  2.099229025956226E-005
 WARNING: Sub-Space-Matrix is not hermitian in DAV            5
  2.099229025956226E-005
 WARNING: Sub-Space-Matrix is not hermitian in DAV            5
  2.099229025956226E-005
 WARNING: Sub-Space-Matrix is not hermitian in DAV            5
  2.099229025956226E-005
 WARNING: Sub-Space-Matrix is not hermitian in DAV            5
 WARNING: Sub-Space-Matrix is not hermitian in DAV            5
  2.099229025956226E-005
 WARNING: Sub-Space-Matrix is not hermitian in DAV            5
  2.099229025956226E-005
 WARNING: Sub-Space-Matrix is not hermitian in DAV            5
  2.099229025956226E-005
 WARNING: Sub-Space-Matrix is not hermitian in DAV            5
  2.099229025956226E-005
 WARNING: Sub-Space-Matrix is not hermitian in DAV            5
  2.099229025956226E-005
 WARNING: Sub-Space-Matrix is not hermitian in DAV            5
  2.099229025956226E-005
 WARNING: Sub-Space-Matrix is not hermitian in DAV            5
  2.099229025956226E-005
 WARNING: Sub-Space-Matrix is not hermitian in DAV            5
  2.099229025956226E-005
 WARNING: Sub-Space-Matrix is not hermitian in DAV            5
  2.099229025956226E-005
 WARNING: Sub-Space-Matrix is not hermitian in DAV            5
  2.099229025956226E-005
 WARNING: Sub-Space-Matrix is not hermitian in DAV            5
  2.099229025956226E-005
 WARNING: Sub-Space-Matrix is not hermitian in DAV            5
  2.099229025956226E-005
 WARNING: Sub-Space-Matrix is not hermitian in DAV            5
  2.099229025956226E-005
 WARNING: Sub-Space-Matrix is not hermitian in DAV            5
  2.099229025956226E-005
 WARNING: Sub-Space-Matrix is not hermitian in DAV            5
  2.099229025956226E-005
 WARNING: Sub-Space-Matrix is not hermitian in DAV            5
  2.099229025956226E-005
 WARNING: Sub-Space-Matrix is not hermitian in DAV            5
  2.099229025956226E-005
 WARNING: Sub-Space-Matrix is not hermitian in DAV            5
  2.099229025956226E-005
 WARNING: Sub-Space-Matrix is not hermitian in DAV            5
  2.099229025956226E-005
 WARNING: Sub-Space-Matrix is not hermitian in DAV            5
  2.099229025956226E-005
 WARNING: Sub-Space-Matrix is not hermitian in DAV            5
  2.099229025956226E-005
 WARNING: Sub-Space-Matrix is not hermitian in DAV            5
  2.099229025956226E-005
  2.099229025956226E-005
 WARNING: Sub-Space-Matrix is not hermitian in DAV            2
  2.396210080746549E-005
 WARNING: Sub-Space-Matrix is not hermitian in DAV            2
  2.396210080746549E-005
 WARNING: Sub-Space-Matrix is not hermitian in DAV            2
  2.396210080746549E-005
 WARNING: Sub-Space-Matrix is not hermitian in DAV            2
  2.396210080746549E-005
 WARNING: Sub-Space-Matrix is not hermitian in DAV            2
  2.396210080746549E-005
 WARNING: Sub-Space-Matrix is not hermitian in DAV            2
  2.396210080746549E-005
 WARNING: Sub-Space-Matrix is not hermitian in DAV            2
  2.396210080746549E-005
 WARNING: Sub-Space-Matrix is not hermitian in DAV            2
  2.396210080746549E-005
 WARNING: Sub-Space-Matrix is not hermitian in DAV            2
  2.396210080746549E-005
 WARNING: Sub-Space-Matrix is not hermitian in DAV            2
  2.396210080746549E-005
 WARNING: Sub-Space-Matrix is not hermitian in DAV            2
  2.396210080746549E-005
 WARNING: Sub-Space-Matrix is not hermitian in DAV            2
 WARNING: Sub-Space-Matrix is not hermitian in DAV            2
  2.396210080746549E-005
 WARNING: Sub-Space-Matrix is not hermitian in DAV            2
  2.396210080746549E-005
 WARNING: Sub-Space-Matrix is not hermitian in DAV            2
  2.396210080746549E-005
 WARNING: Sub-Space-Matrix is not hermitian in DAV            2
  2.396210080746549E-005
 WARNING: Sub-Space-Matrix is not hermitian in DAV            2
  2.396210080746549E-005
 WARNING: Sub-Space-Matrix is not hermitian in DAV            2
  2.396210080746549E-005
 WARNING: Sub-Space-Matrix is not hermitian in DAV            2
  2.396210080746549E-005
 WARNING: Sub-Space-Matrix is not hermitian in DAV            2
  2.396210080746549E-005
 WARNING: Sub-Space-Matrix is not hermitian in DAV            2
  2.396210080746549E-005
 WARNING: Sub-Space-Matrix is not hermitian in DAV            2
  2.396210080746549E-005
 WARNING: Sub-Space-Matrix is not hermitian in DAV            2
  2.396210080746549E-005
 WARNING: Sub-Space-Matrix is not hermitian in DAV            2
  2.396210080746549E-005
 WARNING: Sub-Space-Matrix is not hermitian in DAV            2
  2.396210080746549E-005
 WARNING: Sub-Space-Matrix is not hermitian in DAV            2
  2.396210080746549E-005
 WARNING: Sub-Space-Matrix is not hermitian in DAV            2
  2.396210080746549E-005
 WARNING: Sub-Space-Matrix is not hermitian in DAV            2
  2.396210080746549E-005
 WARNING: Sub-Space-Matrix is not hermitian in DAV            2
  2.396210080746549E-005
 WARNING: Sub-Space-Matrix is not hermitian in DAV            2
  2.396210080746549E-005
 WARNING: Sub-Space-Matrix is not hermitian in DAV            2
  2.396210080746549E-005
 WARNING: Sub-Space-Matrix is not hermitian in DAV            2
  2.396210080746549E-005
 WARNING: Sub-Space-Matrix is not hermitian in DAV            2
  2.396210080746549E-005
 WARNING: Sub-Space-Matrix is not hermitian in DAV            2
  2.396210080746549E-005
 WARNING: Sub-Space-Matrix is not hermitian in DAV            2
  2.396210080746549E-005
 WARNING: Sub-Space-Matrix is not hermitian in DAV            2
  2.396210080746549E-005
  2.396210080746549E-005
DAV: 100    -0.245088817866E+09   -0.12699E+09   -0.12652E+09  8496   0.576E+02
 -----------------------------------------------------------------------------
|                                                                             |
|           W    W    AA    RRRRR   N    N  II  N    N   GGGG   !!!           |
|           W    W   A  A   R    R  NN   N  II  NN   N  G    G  !!!           |
|           W    W  A    A  R    R  N N  N  II  N N  N  G       !!!           |
|           W WW W  AAAAAA  RRRRR   N  N N  II  N  N N  G  GGG   !            |
|           WW  WW  A    A  R   R   N   NN  II  N   NN  G    G                |
|           W    W  A    A  R    R  N    N  II  N    N   GGGG   !!!           |
|                                                                             |
|     The electronic self-consistency was not achieved in the given           |
|     number of steps (NELM). The forces and other quantities evaluated       |
|     might not be reliable so examine the results carefully. If you find     |
|     spurious results, we suggest increasing NELM, if you were close to      |
|     convergence or switching to a different ALGO or adjusting the           |
|     density mixing parameters otherwise.                                    |
|                                                                             |
 -----------------------------------------------------------------------------

BRMIX: very serious problems
 the old and the new charge density differ
 old charge density:   442.26606 new  448.98197
   1 F= -.24508882E+09 E0= -.24508882E+09  d E =-.245089E+09  mag=   -12.1950
 BRION: g(F)=  0.298E+13 g(S)=  0.000E+00
 bond charge predicted

===================================================================================
=   BAD TERMINATION OF ONE OF YOUR APPLICATION PROCESSES
=   RANK 0 PID 223073 RUNNING AT puntukas.ftmc.lt
=   KILLED BY SIGNAL: 6 (Aborted)
===================================================================================

===================================================================================
=   BAD TERMINATION OF ONE OF YOUR APPLICATION PROCESSES
=   RANK 1 PID 223074 RUNNING AT puntukas.ftmc.lt
=   KILLED BY SIGNAL: 9 (Killed)
===================================================================================

===================================================================================
=   BAD TERMINATION OF ONE OF YOUR APPLICATION PROCESSES
=   RANK 2 PID 223075 RUNNING AT puntukas.ftmc.lt
=   KILLED BY SIGNAL: 9 (Killed)
===================================================================================

===================================================================================
=   BAD TERMINATION OF ONE OF YOUR APPLICATION PROCESSES
=   RANK 3 PID 223076 RUNNING AT puntukas.ftmc.lt
=   KILLED BY SIGNAL: 9 (Killed)
===================================================================================

===================================================================================
=   BAD TERMINATION OF ONE OF YOUR APPLICATION PROCESSES
=   RANK 4 PID 223077 RUNNING AT puntukas.ftmc.lt
=   KILLED BY SIGNAL: 9 (Killed)
===================================================================================

===================================================================================
=   BAD TERMINATION OF ONE OF YOUR APPLICATION PROCESSES
=   RANK 5 PID 223078 RUNNING AT puntukas.ftmc.lt
=   KILLED BY SIGNAL: 9 (Killed)
===================================================================================

===================================================================================
=   BAD TERMINATION OF ONE OF YOUR APPLICATION PROCESSES
=   RANK 6 PID 223079 RUNNING AT puntukas.ftmc.lt
=   KILLED BY SIGNAL: 9 (Killed)
===================================================================================

===================================================================================
=   BAD TERMINATION OF ONE OF YOUR APPLICATION PROCESSES
=   RANK 7 PID 223080 RUNNING AT puntukas.ftmc.lt
=   KILLED BY SIGNAL: 9 (Killed)
===================================================================================

===================================================================================
=   BAD TERMINATION OF ONE OF YOUR APPLICATION PROCESSES
=   RANK 8 PID 223081 RUNNING AT puntukas.ftmc.lt
=   KILLED BY SIGNAL: 9 (Killed)
===================================================================================

===================================================================================
=   BAD TERMINATION OF ONE OF YOUR APPLICATION PROCESSES
=   RANK 9 PID 223082 RUNNING AT puntukas.ftmc.lt
=   KILLED BY SIGNAL: 9 (Killed)
===================================================================================

===================================================================================
=   BAD TERMINATION OF ONE OF YOUR APPLICATION PROCESSES
=   RANK 10 PID 223083 RUNNING AT puntukas.ftmc.lt
=   KILLED BY SIGNAL: 9 (Killed)
===================================================================================

===================================================================================
=   BAD TERMINATION OF ONE OF YOUR APPLICATION PROCESSES
=   RANK 11 PID 223084 RUNNING AT puntukas.ftmc.lt
=   KILLED BY SIGNAL: 9 (Killed)
===================================================================================

===================================================================================
=   BAD TERMINATION OF ONE OF YOUR APPLICATION PROCESSES
=   RANK 12 PID 223085 RUNNING AT puntukas.ftmc.lt
=   KILLED BY SIGNAL: 9 (Killed)
===================================================================================

===================================================================================
=   BAD TERMINATION OF ONE OF YOUR APPLICATION PROCESSES
=   RANK 13 PID 223086 RUNNING AT puntukas.ftmc.lt
=   KILLED BY SIGNAL: 9 (Killed)
===================================================================================

===================================================================================
=   BAD TERMINATION OF ONE OF YOUR APPLICATION PROCESSES
=   RANK 14 PID 223087 RUNNING AT puntukas.ftmc.lt
=   KILLED BY SIGNAL: 9 (Killed)
===================================================================================

===================================================================================
=   BAD TERMINATION OF ONE OF YOUR APPLICATION PROCESSES
=   RANK 15 PID 223088 RUNNING AT puntukas.ftmc.lt
=   KILLED BY SIGNAL: 9 (Killed)
===================================================================================

===================================================================================
=   BAD TERMINATION OF ONE OF YOUR APPLICATION PROCESSES
=   RANK 16 PID 223089 RUNNING AT puntukas.ftmc.lt
=   KILLED BY SIGNAL: 9 (Killed)
===================================================================================

===================================================================================
=   BAD TERMINATION OF ONE OF YOUR APPLICATION PROCESSES
=   RANK 17 PID 223090 RUNNING AT puntukas.ftmc.lt
=   KILLED BY SIGNAL: 9 (Killed)
===================================================================================

===================================================================================
=   BAD TERMINATION OF ONE OF YOUR APPLICATION PROCESSES
=   RANK 18 PID 223091 RUNNING AT puntukas.ftmc.lt
=   KILLED BY SIGNAL: 9 (Killed)
===================================================================================

===================================================================================
=   BAD TERMINATION OF ONE OF YOUR APPLICATION PROCESSES
=   RANK 19 PID 223092 RUNNING AT puntukas.ftmc.lt
=   KILLED BY SIGNAL: 9 (Killed)
===================================================================================

===================================================================================
=   BAD TERMINATION OF ONE OF YOUR APPLICATION PROCESSES
=   RANK 20 PID 223093 RUNNING AT puntukas.ftmc.lt
=   KILLED BY SIGNAL: 9 (Killed)
===================================================================================

===================================================================================
=   BAD TERMINATION OF ONE OF YOUR APPLICATION PROCESSES
=   RANK 21 PID 223094 RUNNING AT puntukas.ftmc.lt
=   KILLED BY SIGNAL: 9 (Killed)
===================================================================================

===================================================================================
=   BAD TERMINATION OF ONE OF YOUR APPLICATION PROCESSES
=   RANK 22 PID 223095 RUNNING AT puntukas.ftmc.lt
=   KILLED BY SIGNAL: 9 (Killed)
===================================================================================

===================================================================================
=   BAD TERMINATION OF ONE OF YOUR APPLICATION PROCESSES
=   RANK 23 PID 223096 RUNNING AT puntukas.ftmc.lt
=   KILLED BY SIGNAL: 9 (Killed)
===================================================================================

===================================================================================
=   BAD TERMINATION OF ONE OF YOUR APPLICATION PROCESSES
=   RANK 24 PID 223097 RUNNING AT puntukas.ftmc.lt
=   KILLED BY SIGNAL: 9 (Killed)
===================================================================================

===================================================================================
=   BAD TERMINATION OF ONE OF YOUR APPLICATION PROCESSES
=   RANK 25 PID 223098 RUNNING AT puntukas.ftmc.lt
=   KILLED BY SIGNAL: 9 (Killed)
===================================================================================

===================================================================================
=   BAD TERMINATION OF ONE OF YOUR APPLICATION PROCESSES
=   RANK 26 PID 223099 RUNNING AT puntukas.ftmc.lt
=   KILLED BY SIGNAL: 9 (Killed)
===================================================================================

===================================================================================
=   BAD TERMINATION OF ONE OF YOUR APPLICATION PROCESSES
=   RANK 27 PID 223100 RUNNING AT puntukas.ftmc.lt
=   KILLED BY SIGNAL: 9 (Killed)
===================================================================================

===================================================================================
=   BAD TERMINATION OF ONE OF YOUR APPLICATION PROCESSES
=   RANK 28 PID 223101 RUNNING AT puntukas.ftmc.lt
=   KILLED BY SIGNAL: 9 (Killed)
===================================================================================

===================================================================================
=   BAD TERMINATION OF ONE OF YOUR APPLICATION PROCESSES
=   RANK 29 PID 223102 RUNNING AT puntukas.ftmc.lt
=   KILLED BY SIGNAL: 9 (Killed)
===================================================================================

===================================================================================
=   BAD TERMINATION OF ONE OF YOUR APPLICATION PROCESSES
=   RANK 30 PID 223103 RUNNING AT puntukas.ftmc.lt
=   KILLED BY SIGNAL: 9 (Killed)
===================================================================================

===================================================================================
=   BAD TERMINATION OF ONE OF YOUR APPLICATION PROCESSES
=   RANK 31 PID 223104 RUNNING AT puntukas.ftmc.lt
=   KILLED BY SIGNAL: 9 (Killed)
===================================================================================

===================================================================================
=   BAD TERMINATION OF ONE OF YOUR APPLICATION PROCESSES
=   RANK 32 PID 223105 RUNNING AT puntukas.ftmc.lt
=   KILLED BY SIGNAL: 9 (Killed)
===================================================================================

===================================================================================
=   BAD TERMINATION OF ONE OF YOUR APPLICATION PROCESSES
=   RANK 33 PID 223106 RUNNING AT puntukas.ftmc.lt
=   KILLED BY SIGNAL: 9 (Killed)
===================================================================================

===================================================================================
=   BAD TERMINATION OF ONE OF YOUR APPLICATION PROCESSES
=   RANK 34 PID 223107 RUNNING AT puntukas.ftmc.lt
=   KILLED BY SIGNAL: 9 (Killed)
===================================================================================

===================================================================================
=   BAD TERMINATION OF ONE OF YOUR APPLICATION PROCESSES
=   RANK 35 PID 223108 RUNNING AT puntukas.ftmc.lt
=   KILLED BY SIGNAL: 9 (Killed)
===================================================================================
Sun Sep 29 16:23:21 EEST 2024
