/scratch/aleks/calculations/VASP/Si/slab
Mon Sep 30 21:58:49 EEST 2024
 running on   36 total cores
 distrk:  each k-point on   36 cores,    1 groups
 distr:  one band on    9 cores,    4 groups
 vasp.6.3.2 27Jun22 (build Sep 20 2022 16:10:27) complex                        
  
 POSCAR found type information on POSCAR Si
 POSCAR found :  1 types and     160 ions
 Reading from existing POTCAR
 scaLAPACK will be used
 Reading from existing POTCAR
 LDA part: xc-table for Pade appr. of Perdew
 POSCAR, INCAR and KPOINTS ok, starting setup
 FFT: planning ... GRIDC
 FFT: planning ... GRID_SOFT
 FFT: planning ... GRID
 WAVECAR not read
 entering main loop
       N       E                     dE             d eps       ncg     rms          rms(c)
DAV:   1     0.211205111866E+04    0.21121E+04   -0.20193E+05  3248   0.103E+03
DAV:   2    -0.611627201207E+03   -0.27237E+04   -0.26008E+04  3856   0.190E+02
DAV:   3    -0.852582396006E+03   -0.24096E+03   -0.23474E+03  4120   0.509E+01
DAV:   4    -0.864669415244E+03   -0.12087E+02   -0.12002E+02  4648   0.124E+01
DAV:   5    -0.865086932835E+03   -0.41752E+00   -0.41648E+00  4616   0.233E+00    0.438E+01
DAV:   6    -0.853486126510E+03    0.11601E+02   -0.18132E+01  3848   0.480E+00    0.347E+01
DAV:   7    -0.871346685583E+03   -0.17861E+02   -0.56006E+01  4264   0.197E+01    0.173E+01
DAV:   8    -0.949666873483E+03   -0.78320E+02   -0.39501E+02  5252   0.383E+01    0.290E+01
DAV:   9    -0.836993830401E+03    0.11267E+03   -0.14600E+02  4672   0.277E+01    0.116E+01
DAV:  10    -0.844920508439E+03   -0.79267E+01   -0.13096E+02  3968   0.101E+01    0.776E+00
DAV:  11    -0.860764576178E+03   -0.15844E+02   -0.21961E+01  4184   0.155E+01    0.111E+01
DAV:  12    -0.845471431323E+03    0.15293E+02   -0.73424E+00  4248   0.130E+01    0.428E+00
DAV:  13    -0.845407908256E+03    0.63523E-01   -0.61963E+00  3904   0.474E+00    0.291E+00
DAV:  14    -0.845451618902E+03   -0.43711E-01   -0.19205E+00  4024   0.246E+00    0.237E+00
DAV:  15    -0.845362179143E+03    0.89440E-01   -0.75989E-01  3968   0.158E+00    0.164E+00
DAV:  16    -0.845300814912E+03    0.61364E-01   -0.15860E-01  4232   0.701E-01    0.152E+00
DAV:  17    -0.845283550206E+03    0.17265E-01   -0.57684E-02  3968   0.426E-01    0.156E+00
DAV:  18    -0.845287410514E+03   -0.38603E-02   -0.24319E-02  3728   0.186E-01    0.165E+00
DAV:  19    -0.845298606097E+03   -0.11196E-01   -0.17583E-02  4784   0.312E-01    0.163E+00
DAV:  20    -0.845278286040E+03    0.20320E-01   -0.14234E-01  4016   0.720E-01    0.173E+00
DAV:  21    -0.845255138668E+03    0.23147E-01   -0.72927E-02  4360   0.729E-01    0.166E+00
DAV:  22    -0.845248457641E+03    0.66810E-02   -0.54878E-02  3984   0.414E-01    0.186E+00
DAV:  23    -0.845249316307E+03   -0.85867E-03   -0.25119E-02  3712   0.185E-01    0.198E+00
DAV:  24    -0.845247567544E+03    0.17488E-02   -0.11340E-03  4464   0.713E-02    0.193E+00
DAV:  25    -0.845236995357E+03    0.10572E-01   -0.94900E-03  4376   0.231E-01    0.156E+00
DAV:  26    -0.845230592640E+03    0.64027E-02   -0.23894E-02  3904   0.232E-01    0.110E+00
DAV:  27    -0.845230366479E+03    0.22616E-03   -0.84266E-03  3688   0.124E-01    0.101E+00
DAV:  28    -0.845229943349E+03    0.42313E-03   -0.90030E-04  4440   0.395E-02    0.100E+00
DAV:  29    -0.845229796698E+03    0.14665E-03   -0.24503E-04  3840   0.205E-02    0.982E-01
DAV:  30    -0.845229475954E+03    0.32074E-03   -0.15252E-04  3912   0.182E-02    0.964E-01
DAV:  31    -0.845227809936E+03    0.16660E-02   -0.12023E-03  4016   0.642E-02    0.871E-01
DAV:  32    -0.845227357937E+03    0.45200E-03   -0.59583E-04  3840   0.384E-02    0.776E-01
DAV:  33    -0.845227352494E+03    0.54432E-05   -0.15896E-04  3896   0.131E-02    0.762E-01
DAV:  34    -0.845227275892E+03    0.76601E-04   -0.15847E-05  3872   0.720E-03    0.746E-01
DAV:  35    -0.845227236919E+03    0.38974E-04   -0.91346E-06  3824   0.533E-03    0.741E-01
DAV:  36    -0.845227412318E+03   -0.17540E-03   -0.27581E-05  4272   0.169E-02    0.748E-01
DAV:  37    -0.845227807935E+03   -0.39562E-03   -0.11560E-04  4008   0.263E-02    0.776E-01
DAV:  38    -0.845227823267E+03   -0.15332E-04   -0.88605E-05  3648   0.103E-02    0.786E-01
DAV:  39    -0.845227791783E+03    0.31484E-04   -0.26146E-06  2680   0.407E-03    0.788E-01
DAV:  40    -0.845227804050E+03   -0.12267E-04   -0.17478E-06  2024   0.184E-03    0.789E-01
DAV:  41    -0.845227901263E+03   -0.97213E-04   -0.38007E-06  3232   0.522E-03    0.795E-01
DAV:  42    -0.845228565451E+03   -0.66419E-03   -0.28341E-04  3944   0.333E-02    0.814E-01
DAV:  43    -0.845229055686E+03   -0.49023E-03   -0.45637E-04  3904   0.333E-02    0.823E-01
DAV:  44    -0.845228747970E+03    0.30772E-03   -0.13926E-04  3776   0.166E-02    0.812E-01
DAV:  45    -0.845228763724E+03   -0.15754E-04   -0.75385E-06  3624   0.310E-03    0.815E-01
DAV:  46    -0.845228636385E+03    0.12734E-03   -0.19233E-06  2656   0.362E-03    0.802E-01
DAV:  47    -0.845226024909E+03    0.26115E-02   -0.12894E-03  3792   0.829E-02    0.508E-01
DAV:  48    -0.845225830252E+03    0.19466E-03   -0.14730E-03  3720   0.416E-02    0.388E-01
DAV:  49    -0.845225765205E+03    0.65047E-04   -0.39786E-05  4528   0.980E-03    0.372E-01
DAV:  50    -0.845225752320E+03    0.12886E-04   -0.12483E-05  3600   0.410E-03    0.364E-01
DAV:  51    -0.845225941345E+03   -0.18902E-03   -0.23620E-04  3960   0.313E-02    0.475E-01
DAV:  52    -0.845225978533E+03   -0.37188E-04   -0.11113E-04  3848   0.122E-02    0.476E-01
DAV:  53    -0.845225748313E+03    0.23022E-03   -0.47497E-05  3752   0.108E-02    0.427E-01
DAV:  54    -0.845225369254E+03    0.37906E-03   -0.28044E-04  3840   0.204E-02    0.295E-01
DAV:  55    -0.845225286353E+03    0.82901E-04   -0.75554E-05  3856   0.132E-02    0.259E-01
DAV:  56    -0.845225213479E+03    0.72874E-04   -0.19863E-04  3752   0.194E-02    0.190E-01
DAV:  57    -0.845225231024E+03   -0.17544E-04   -0.55563E-05  4008   0.784E-03    0.203E-01
DAV:  58    -0.845225190273E+03    0.40751E-04   -0.11832E-05  3512   0.654E-03    0.184E-01
DAV:  59    -0.845225169140E+03    0.21133E-04   -0.22235E-05  3720   0.529E-03    0.170E-01
DAV:  60    -0.845225154267E+03    0.14873E-04   -0.65187E-06  3664   0.289E-03    0.161E-01
DAV:  61    -0.845225177841E+03   -0.23574E-04   -0.52529E-04  3760   0.363E-02    0.129E-01
DAV:  62    -0.845225196180E+03   -0.18339E-04   -0.20361E-04  3704   0.189E-02    0.156E-01
DAV:  63    -0.845225168563E+03    0.27617E-04   -0.26351E-05  3936   0.731E-03    0.156E-01
DAV:  64    -0.845225134436E+03    0.34127E-04   -0.44805E-05  3784   0.103E-02    0.139E-01
DAV:  65    -0.845225124314E+03    0.10122E-04   -0.64423E-05  3864   0.101E-02    0.130E-01
DAV:  66    -0.845225120882E+03    0.34322E-05   -0.24347E-05  3824   0.775E-03    0.113E-01
DAV:  67    -0.845225122171E+03   -0.12890E-05   -0.10738E-05  3576   0.382E-03    0.115E-01
DAV:  68    -0.845225122378E+03   -0.20706E-06   -0.29541E-07  1904   0.834E-04
   1 F= -.84522512E+03 E0= -.84520261E+03  d E =-.845225E+03
 BRION: g(F)=  0.396E+01 g(S)=  0.000E+00
 bond charge predicted
       N       E                     dE             d eps       ncg     rms          rms(c)
DAV:   1    -0.846605415413E+03   -0.13803E+01   -0.63034E+01  3536   0.854E+00    0.404E+00
DAV:   2    -0.846834256671E+03   -0.22884E+00   -0.49547E+00  3768   0.256E+00    0.238E+00
DAV:   3    -0.848125758422E+03   -0.12915E+01   -0.45418E+00  4584   0.357E+00    0.394E+00
DAV:   4    -0.846851516780E+03    0.12742E+01   -0.62482E+00  4472   0.386E+00    0.210E+00
DAV:   5    -0.846715332585E+03    0.13618E+00   -0.46598E-01  3768   0.152E+00    0.129E+00
DAV:   6    -0.846700948921E+03    0.14384E-01   -0.27746E-01  4040   0.128E+00    0.115E+00
DAV:   7    -0.846687627164E+03    0.13322E-01   -0.10492E-01  3824   0.606E-01    0.845E-01
DAV:   8    -0.846687059616E+03    0.56755E-03   -0.40294E-02  4056   0.304E-01    0.763E-01
DAV:   9    -0.846706686894E+03   -0.19627E-01   -0.15151E-01  4480   0.686E-01    0.709E-01
DAV:  10    -0.846712491050E+03   -0.58042E-02   -0.57168E-02  5248   0.976E-01    0.794E-01
DAV:  11    -0.846685983973E+03    0.26507E-01   -0.16129E-02  4304   0.440E-01    0.249E-01
DAV:  12    -0.846685864089E+03    0.11988E-03   -0.12013E-02  3912   0.124E-01    0.205E-01
DAV:  13    -0.846685990255E+03   -0.12617E-03   -0.13402E-03  4056   0.421E-02    0.194E-01
DAV:  14    -0.846685919082E+03    0.71172E-04   -0.96035E-05  4216   0.161E-02    0.188E-01
DAV:  15    -0.846687284004E+03   -0.13649E-02   -0.68714E-03  4536   0.708E-02    0.289E-01
DAV:  16    -0.846685642970E+03    0.16410E-02   -0.78181E-03  4312   0.919E-02    0.203E-01
DAV:  17    -0.846685933177E+03   -0.29021E-03   -0.45581E-03  4168   0.834E-02    0.274E-01
DAV:  18    -0.846685659923E+03    0.27325E-03   -0.24247E-03  3624   0.438E-02    0.284E-01
DAV:  19    -0.846685629565E+03    0.30358E-04   -0.10452E-03  4192   0.271E-02    0.290E-01
DAV:  20    -0.846685626148E+03    0.34179E-05   -0.14637E-04  3568   0.132E-02    0.285E-01
DAV:  21    -0.846685599803E+03    0.26345E-04   -0.12774E-05  3864   0.449E-03    0.281E-01
DAV:  22    -0.846685593590E+03    0.62133E-05   -0.24274E-05  3136   0.486E-03    0.279E-01
DAV:  23    -0.846685467147E+03    0.12644E-03   -0.10404E-04  3800   0.167E-02    0.243E-01
DAV:  24    -0.846685455905E+03    0.11242E-04   -0.50874E-05  3800   0.841E-03    0.232E-01
DAV:  25    -0.846685449147E+03    0.67582E-05   -0.97846E-06  3672   0.304E-03    0.230E-01
DAV:  26    -0.846685448748E+03    0.39872E-06   -0.10198E-06  1864   0.121E-03
   2 F= -.84668545E+03 E0= -.84664320E+03  d E =-.146033E+01
 BRION: g(F)=  0.535E+00 g(S)=  0.000E+00 retain N=  1 mean eig= 0.84
 eig:   0.841
 bond charge predicted
       N       E                     dE             d eps       ncg     rms          rms(c)
DAV:   1    -0.846927623721E+03   -0.24217E+00   -0.43180E+00  3384   0.249E+00    0.112E+00
DAV:   2    -0.846960352896E+03   -0.32729E-01   -0.35714E-01  3920   0.697E-01    0.572E-01
DAV:   3    -0.847478592253E+03   -0.51824E+00   -0.10579E+00  5256   0.187E+00    0.264E+00
DAV:   4    -0.846957232410E+03    0.52136E+00   -0.13213E-01  5376   0.175E+00    0.422E-01
DAV:   5    -0.846961645904E+03   -0.44135E-02   -0.80688E-02  3920   0.349E-01    0.404E-01
DAV:   6    -0.846957981274E+03    0.36646E-02   -0.22529E-02  3872   0.205E-01    0.166E-01
DAV:   7    -0.846957338832E+03    0.64244E-03   -0.10068E-02  4208   0.142E-01    0.132E-01
DAV:   8    -0.846957580988E+03   -0.24216E-03   -0.10085E-02  4136   0.126E-01    0.137E-01
DAV:   9    -0.846957161890E+03    0.41910E-03   -0.36623E-03  3888   0.651E-02    0.771E-02
DAV:  10    -0.846957173444E+03   -0.11554E-04   -0.35570E-03  4216   0.776E-02    0.717E-02
DAV:  11    -0.846957094943E+03    0.78500E-04   -0.17867E-03  3864   0.440E-02    0.383E-02
DAV:  12    -0.846957098158E+03   -0.32141E-05   -0.43473E-04  4176   0.323E-02    0.389E-02
DAV:  13    -0.846957092542E+03    0.56156E-05   -0.30564E-04  4152   0.343E-02    0.185E-02
DAV:  14    -0.846957084511E+03    0.80311E-05   -0.13849E-04  4256   0.286E-02    0.146E-02
DAV:  15    -0.846957078786E+03    0.57247E-05   -0.50377E-05  4072   0.142E-02    0.909E-03
DAV:  16    -0.846957080212E+03   -0.14253E-05   -0.28300E-05  4136   0.604E-03    0.846E-03
DAV:  17    -0.846957080066E+03    0.14589E-06   -0.20022E-06  2088   0.194E-03
   3 F= -.84695708E+03 E0= -.84691517E+03  d E =-.271631E+00
 BRION: g(F)=  0.724E-01 g(S)=  0.000E+00 retain N=  2 mean eig= 0.67
 eig:   0.669  0.669
 bond charge predicted
       N       E                     dE             d eps       ncg     rms          rms(c)
DAV:   1    -0.847028588738E+03   -0.71509E-01   -0.12504E+00  3352   0.134E+00    0.621E-01
DAV:   2    -0.847036766650E+03   -0.81779E-02   -0.89972E-02  3832   0.392E-01    0.423E-01
DAV:   3    -0.847360665391E+03   -0.32390E+00   -0.14000E+00  4752   0.155E+00    0.215E+00
DAV:   4    -0.847033637097E+03    0.32703E+00   -0.53370E-02  5528   0.141E+00    0.247E-01
DAV:   5    -0.847033753244E+03   -0.11615E-03   -0.18424E-02  4240   0.249E-01    0.194E-01
DAV:   6    -0.847033227580E+03    0.52566E-03   -0.60965E-03  4192   0.239E-01    0.137E-01
DAV:   7    -0.847033076909E+03    0.15067E-03   -0.48168E-03  3936   0.116E-01    0.833E-02
DAV:   8    -0.847033108138E+03   -0.31229E-04   -0.19035E-03  4096   0.767E-02    0.654E-02
DAV:   9    -0.847033086818E+03    0.21320E-04   -0.73554E-04  3888   0.425E-02    0.381E-02
DAV:  10    -0.847033094580E+03   -0.77620E-05   -0.35501E-04  4168   0.403E-02    0.325E-02
DAV:  11    -0.847033089407E+03    0.51729E-05   -0.44144E-04  4040   0.258E-02    0.215E-02
DAV:  12    -0.847033085157E+03    0.42502E-05   -0.15280E-04  4224   0.187E-02    0.170E-02
DAV:  13    -0.847033080094E+03    0.50625E-05   -0.63242E-05  3872   0.120E-02    0.102E-02
DAV:  14    -0.847033079099E+03    0.99538E-06   -0.10119E-05  3480   0.669E-03    0.899E-03
DAV:  15    -0.847033078531E+03    0.56800E-06   -0.10330E-05  4016   0.633E-03    0.489E-03
DAV:  16    -0.847033078648E+03   -0.11736E-06   -0.66450E-06  2864   0.412E-03
   4 F= -.84703308E+03 E0= -.84699793E+03  d E =-.759986E-01
 BRION: g(F)=  0.321E-01 g(S)=  0.000E+00 retain N=  3 mean eig= 2.22
 eig:   0.957  0.957  4.760
 bond charge predicted
       N       E                     dE             d eps       ncg     rms          rms(c)
DAV:   1    -0.847074861986E+03   -0.41783E-01   -0.10994E+00  3304   0.124E+00    0.500E-01
DAV:   2    -0.847080295733E+03   -0.54337E-02   -0.65825E-02  3872   0.345E-01    0.289E-01
DAV:   3    -0.847222065787E+03   -0.14177E+00   -0.33701E-01  4768   0.101E+00    0.146E+00
DAV:   4    -0.847080566910E+03    0.14150E+00   -0.16063E-02  4760   0.983E-01    0.258E-01
DAV:   5    -0.847081172395E+03   -0.60548E-03   -0.16880E-02  5720   0.401E-01    0.163E-01
DAV:   6    -0.847078964937E+03    0.22075E-02   -0.12241E-02  4208   0.316E-01    0.151E-01
DAV:   7    -0.847079322626E+03   -0.35769E-03   -0.49803E-03  3832   0.848E-02    0.112E-01
DAV:   8    -0.847079141920E+03    0.18071E-03   -0.21322E-04  3904   0.351E-02    0.913E-02
DAV:   9    -0.847079023308E+03    0.11861E-03   -0.20956E-03  4048   0.458E-02    0.433E-02
DAV:  10    -0.847079027791E+03   -0.44837E-05   -0.37039E-04  3760   0.256E-02    0.440E-02
DAV:  11    -0.847079030114E+03   -0.23228E-05   -0.77297E-05  3976   0.957E-03    0.379E-02
DAV:  12    -0.847079036457E+03   -0.63429E-05   -0.57701E-05  4016   0.772E-03    0.331E-02
DAV:  13    -0.847079020989E+03    0.15468E-04   -0.59307E-05  3776   0.813E-03    0.242E-02
DAV:  14    -0.847079012944E+03    0.80447E-05   -0.27499E-05  3752   0.553E-03    0.183E-02
DAV:  15    -0.847079012962E+03   -0.17200E-07   -0.51502E-06  3248   0.266E-03
   5 F= -.84707901E+03 E0= -.84704919E+03  d E =-.459343E-01
 BRION: g(F)=  0.138E-01 g(S)=  0.000E+00 retain N=  3 mean eig= 2.65
 eig:   0.897  3.520  3.520
 bond charge predicted
       N       E                     dE             d eps       ncg     rms          rms(c)
DAV:   1    -0.847097642432E+03   -0.18629E-01   -0.29290E-01  3248   0.666E-01    0.189E-01
DAV:   2    -0.847100633938E+03   -0.29915E-02   -0.18300E-02  4032   0.198E-01    0.287E-01
DAV:   3    -0.847102007257E+03   -0.13733E-02   -0.10785E-01  4056   0.255E-01    0.319E-01
DAV:   4    -0.847099196632E+03    0.28106E-02   -0.34477E-02  4576   0.237E-01    0.124E-01
DAV:   5    -0.847098669853E+03    0.52678E-03   -0.31481E-03  4632   0.206E-01    0.770E-02
DAV:   6    -0.847098530490E+03    0.13936E-03   -0.26052E-03  4352   0.126E-01    0.588E-02
DAV:   7    -0.847098539050E+03   -0.85600E-05   -0.11540E-03  3728   0.423E-02    0.250E-02
DAV:   8    -0.847098507803E+03    0.31247E-04   -0.82374E-05  4384   0.281E-02    0.200E-02
DAV:   9    -0.847098519695E+03   -0.11892E-04   -0.19628E-04  3888   0.180E-02    0.248E-02
DAV:  10    -0.847098516850E+03    0.28450E-05   -0.85019E-05  3848   0.109E-02    0.154E-02
DAV:  11    -0.847098511368E+03    0.54824E-05   -0.35809E-05  4040   0.947E-03    0.878E-03
DAV:  12    -0.847098511597E+03   -0.22963E-06   -0.12421E-05  3984   0.678E-03    0.105E-02
DAV:  13    -0.847098510598E+03    0.99909E-06   -0.88284E-06  3480   0.476E-03
   6 F= -.84709851E+03 E0= -.84706930E+03  d E =-.194976E-01
 BRION: g(F)=  0.835E-02 g(S)=  0.000E+00 retain N=  4 mean eig= 3.06
 eig:   0.891  3.233  3.233  4.880
 bond charge predicted
       N       E                     dE             d eps       ncg     rms          rms(c)
DAV:   1    -0.847119153162E+03   -0.20642E-01   -0.81496E-01  3232   0.111E+00    0.291E-01
DAV:   2    -0.847122707331E+03   -0.35542E-02   -0.34363E-02  4120   0.272E-01    0.292E-01
DAV:   3    -0.847142686361E+03   -0.19979E-01   -0.17444E-01  4264   0.426E-01    0.711E-01
DAV:   4    -0.847122906451E+03    0.19780E-01   -0.12765E-01  4408   0.433E-01    0.207E-01
DAV:   5    -0.847122457459E+03    0.44899E-03   -0.79537E-03  5760   0.323E-01    0.134E-01
DAV:   6    -0.847121607825E+03    0.84963E-03   -0.54057E-03  4728   0.232E-01    0.935E-02
DAV:   7    -0.847121656503E+03   -0.48677E-04   -0.23158E-03  3728   0.754E-02    0.444E-02
DAV:   8    -0.847121636095E+03    0.20408E-04   -0.77587E-04  4116   0.552E-02    0.351E-02
DAV:   9    -0.847121640006E+03   -0.39107E-05   -0.20270E-04  3944   0.248E-02    0.266E-02
DAV:  10    -0.847121641032E+03   -0.10259E-05   -0.13721E-04  3836   0.150E-02    0.258E-02
DAV:  11    -0.847121646762E+03   -0.57304E-05   -0.80876E-05  4088   0.128E-02    0.236E-02
DAV:  12    -0.847121638200E+03    0.85623E-05   -0.80388E-05  4056   0.991E-03    0.124E-02
DAV:  13    -0.847121635523E+03    0.26769E-05   -0.26870E-05  3624   0.101E-02    0.911E-03
DAV:  14    -0.847121635922E+03   -0.39906E-06   -0.11367E-05  3672   0.565E-03    0.864E-03
DAV:  15    -0.847121635786E+03    0.13587E-06   -0.28683E-06  2224   0.225E-03
   7 F= -.84712164E+03 E0= -.84709286E+03  d E =-.231252E-01
 BRION: g(F)=  0.361E-02 g(S)=  0.000E+00 retain N=  4 mean eig= 4.49
 eig:   2.837  2.837  6.144  6.144
 bond charge predicted
       N       E                     dE             d eps       ncg     rms          rms(c)
DAV:   1    -0.847130941023E+03   -0.93051E-02   -0.52181E-01  3232   0.878E-01    0.238E-01
DAV:   2    -0.847134296853E+03   -0.33558E-02   -0.26267E-02  4120   0.235E-01    0.294E-01
DAV:   3    -0.847140277562E+03   -0.59807E-02   -0.13893E-01  4088   0.310E-01    0.460E-01
DAV:   4    -0.847133619634E+03    0.66579E-02   -0.67641E-02  4504   0.312E-01    0.166E-01
DAV:   5    -0.847133055651E+03    0.56398E-03   -0.51126E-03  5324   0.259E-01    0.108E-01
DAV:   6    -0.847132686173E+03    0.36948E-03   -0.39636E-03  4792   0.180E-01    0.777E-02
DAV:   7    -0.847132646214E+03    0.39959E-04   -0.18482E-03  3848   0.637E-02    0.306E-02
DAV:   8    -0.847132642137E+03    0.40775E-05   -0.38698E-04  4080   0.331E-02    0.307E-02
DAV:   9    -0.847132651698E+03   -0.95619E-05   -0.15523E-04  3752   0.147E-02    0.277E-02
DAV:  10    -0.847132644839E+03    0.68592E-05   -0.26095E-05  4104   0.654E-03    0.240E-02
DAV:  11    -0.847132642771E+03    0.20685E-05   -0.39207E-05  3816   0.874E-03    0.146E-02
DAV:  12    -0.847132642250E+03    0.52091E-06   -0.47069E-05  4008   0.918E-03    0.124E-02
DAV:  13    -0.847132641485E+03    0.76513E-06   -0.90590E-06  3312   0.415E-03
   8 F= -.84713264E+03 E0= -.84710406E+03  d E =-.110057E-01
 BRION: g(F)=  0.159E-02 g(S)=  0.000E+00 retain N=  2 mean eig= 7.01
 eig:   7.011  7.011
 bond charge predicted
       N       E                     dE             d eps       ncg     rms          rms(c)
DAV:   1    -0.847135767380E+03   -0.31251E-02   -0.12656E-01  3232   0.427E-01    0.119E-01
DAV:   2    -0.847136301448E+03   -0.53407E-03   -0.57153E-03  4168   0.106E-01BRMIX: very serious problems
 the old and the new charge density differ
 old charge density:   640.00001 new  640.08396
    0.155E-01
DAV:   3    -0.899819601497E+03   -0.52683E+02   -0.96574E+01  4272   0.189E-01BRMIX: very serious problems
 the old and the new charge density differ
 old charge density:   640.08396 new  645.56929
    0.368E+00
DAV:   4    -0.117924324987E+04   -0.27942E+03   -0.26662E+02  3792   0.177E+00BRMIX: very serious problems
 the old and the new charge density differ
 old charge density:   645.56929 new  635.40590
    0.517E+00
DAV:   5    -0.280637169100E+04   -0.16271E+04   -0.38442E+02  3660   0.455E+00BRMIX: very serious problems
 the old and the new charge density differ
 old charge density:   635.40590 new  646.13071
    0.800E+00
DAV:   6    -0.550499807894E+04   -0.26986E+04   -0.49823E+02  3600   0.895E+00BRMIX: very serious problems
 the old and the new charge density differ
 old charge density:   646.13071 new  633.24772
    0.847E+00
DAV:   7    -0.834305168515E+04   -0.28381E+04   -0.42402E+02  3440   0.120E+01BRMIX: very serious problems
 the old and the new charge density differ
 old charge density:   633.24772 new  638.33114
    0.897E+00
DAV:   8    -0.819183473178E+04    0.15122E+03   -0.61309E+02  3392   0.137E+01BRMIX: very serious problems
 the old and the new charge density differ
 old charge density:   638.33114 new  628.93226
    0.902E+00
DAV:   9    -0.107277570508E+05   -0.25359E+04   -0.11308E+03  3556   0.131E+01BRMIX: very serious problems
 the old and the new charge density differ
 old charge density:   628.93226 new  632.09100
    0.106E+01
DAV:  10    -0.400779114161E+05   -0.29350E+05   -0.10424E+03  3564   0.188E+01BRMIX: very serious problems
 the old and the new charge density differ
 old charge density:   632.09100 new  638.15141
    0.124E+01
DAV:  11    -0.150424498577E+05    0.25035E+05   -0.12618E+03  3696   0.266E+01BRMIX: very serious problems
 the old and the new charge density differ
 old charge density:   638.15141 new  634.39970
    0.139E+01
DAV:  12    -0.750072906924E+04    0.75417E+04   -0.20657E+03  3796   0.302E+01BRMIX: very serious problems
 the old and the new charge density differ
 old charge density:   634.39970 new  632.20844
    0.153E+01
DAV:  13    -0.107622557983E+05   -0.32615E+04   -0.19889E+03  3836   0.389E+01BRMIX: very serious problems
 the old and the new charge density differ
 old charge density:   632.20844 new  620.44494
    0.193E+01
DAV:  14    -0.385573366002E+05   -0.27795E+05   -0.23684E+03  3700   0.501E+01BRMIX: very serious problems
 the old and the new charge density differ
 old charge density:   620.44494 new  613.72791
    0.191E+01
DAV:  15    -0.125729078016E+05    0.25984E+05   -0.25363E+03  3764   0.660E+01BRMIX: very serious problems
 the old and the new charge density differ
 old charge density:   613.72791 new  585.51958
    0.193E+01
DAV:  16    -0.148048146943E+05   -0.22319E+04   -0.46187E+03  3348   0.696E+01BRMIX: very serious problems
 the old and the new charge density differ
 old charge density:   585.51958 new  577.12214
    0.175E+01
DAV:  17    -0.239843064691E+05   -0.91795E+04   -0.51072E+03  4028   0.803E+01BRMIX: very serious problems
 the old and the new charge density differ
 old charge density:   577.12214 new  569.95374
    0.171E+01
DAV:  18    -0.424079941740E+05   -0.18424E+05   -0.55735E+03  3568   0.922E+01BRMIX: very serious problems
 the old and the new charge density differ
 old charge density:   569.95374 new  559.55895
    0.178E+01
DAV:  19    -0.422227941061E+05    0.18520E+03   -0.69679E+03  3616   0.891E+01BRMIX: very serious problems
 the old and the new charge density differ
 old charge density:   559.55895 new  557.62334
    0.186E+02
DAV:  20    -0.262446567152E+05    0.15978E+05   -0.10935E+04  4440   0.947E+01BRMIX: very serious problems
 the old and the new charge density differ
 old charge density:   557.62334 new  551.27607
    0.292E+02
DAV:  21    -0.182784983843E+05    0.79662E+04   -0.21182E+04  3616   0.923E+01BRMIX: very serious problems
 the old and the new charge density differ
 old charge density:   551.27607 new  542.67331
    0.335E+02
DAV:  22    -0.192759224660E+07   -0.19093E+07   -0.88878E+03  3640   0.824E+01BRMIX: very serious problems
 the old and the new charge density differ
 old charge density:   542.67331 new  543.32169
    0.145E+02
DAV:  23    -0.212526093636E+05    0.19063E+07   -0.77456E+03  3904   0.794E+01BRMIX: very serious problems
 the old and the new charge density differ
 old charge density:   543.32169 new  547.92537
    0.307E+01
DAV:  24    -0.280957312032E+07   -0.27883E+07   -0.73197E+03  4104   0.858E+01BRMIX: very serious problems
 the old and the new charge density differ
 old charge density:   547.92537 new  549.03642
    0.272E+02
DAV:  25    -0.205039756067E+05    0.27891E+07   -0.70621E+03  3684   0.808E+01BRMIX: very serious problems
 the old and the new charge density differ
 old charge density:   549.03642 new  543.92927
    0.881E+01
DAV:  26    -0.195974403191E+05    0.90654E+03   -0.76998E+03  3616   0.712E+01BRMIX: very serious problems
 the old and the new charge density differ
 old charge density:   543.92927 new  544.03209
    0.399E+01
DAV:  27    -0.207894088354E+05   -0.11920E+04   -0.76897E+03  4596   0.779E+01BRMIX: very serious problems
 the old and the new charge density differ
 old charge density:   544.03209 new  540.98118
    0.244E+01
DAV:  28    -0.231000521945E+07   -0.22892E+07   -0.79620E+03  4104   0.781E+01BRMIX: very serious problems
 the old and the new charge density differ
 old charge density:   540.98118 new  538.40168
    0.160E+02
DAV:  29    -0.146964168457E+05    0.22953E+07   -0.81836E+03  3784   0.729E+01BRMIX: very serious problems
 the old and the new charge density differ
 old charge density:   538.40168 new  541.74860
    0.545E+01
DAV:  30    -0.254890739753E+07   -0.25342E+07   -0.79881E+03  3768   0.742E+01BRMIX: very serious problems
 the old and the new charge density differ
 old charge density:   541.74860 new  545.28973
    0.183E+02
DAV:  31    -0.257447931404E+05    0.25232E+07   -0.76062E+03  3492   0.795E+01BRMIX: very serious problems
 the old and the new charge density differ
 old charge density:   545.28973 new  549.57144
    0.604E+01
DAV:  32    -0.271928246758E+07   -0.26935E+07   -0.36484E+04  3960   0.825E+01BRMIX: very serious problems
 the old and the new charge density differ
 old charge density:   549.57144 new  551.75077
    0.607E+02
DAV:  33    -0.193530355769E+05    0.26999E+07   -0.89492E+03  3616   0.876E+01BRMIX: very serious problems
 the old and the new charge density differ
 old charge density:   551.75077 new  550.32644
    0.398E+01
DAV:  34    -0.104996737773E+07   -0.10306E+07   -0.74327E+03  5368   0.799E+01BRMIX: very serious problems
 the old and the new charge density differ
 old charge density:   550.32644 new  565.01345
    0.498E+01
DAV:  35    -0.153027127407E+05    0.10347E+07   -0.61394E+03  3992   0.106E+02BRMIX: very serious problems
 the old and the new charge density differ
 old charge density:   565.01345 new  552.62757
    0.252E+01
DAV:  36    -0.103155982158E+07   -0.10163E+07   -0.69876E+04  5120   0.940E+01BRMIX: very serious problems
 the old and the new charge density differ
 old charge density:   552.62757 new  551.64041
    0.574E+02
DAV:  37    -0.228252642290E+05    0.10087E+07   -0.91651E+03  3840   0.916E+01BRMIX: very serious problems
 the old and the new charge density differ
 old charge density:   551.64041 new  547.68034
    0.264E+01
DAV:  38    -0.239285884892E+07   -0.23700E+07   -0.75835E+03  5176   0.910E+01BRMIX: very serious problems
 the old and the new charge density differ
 old charge density:   547.68034 new  550.87101
    0.209E+02
DAV:  39    -0.205039257742E+05    0.23724E+07   -0.76315E+03  3840   0.801E+01BRMIX: very serious problems
 the old and the new charge density differ
 old charge density:   550.87101 new  557.38539
    0.332E+01
DAV:  40    -0.238604204724E+07   -0.23655E+07   -0.15310E+05  4936   0.961E+01BRMIX: very serious problems
 the old and the new charge density differ
 old charge density:   557.38539 new  561.05063
    0.667E+02
DAV:  41    -0.193360832439E+05    0.23667E+07   -0.84087E+03  3752   0.103E+02BRMIX: very serious problems
 the old and the new charge density differ
 old charge density:   561.05063 new  541.76584
    0.317E+01
DAV:  42    -0.611022530381E+06   -0.59169E+06   -0.80986E+03  4136   0.760E+01BRMIX: very serious problems
 the old and the new charge density differ
 old charge density:   541.76584 new  554.96347
    0.763E+01
DAV:  43    -0.243051046208E+05    0.58672E+06   -0.71424E+03  3808   0.948E+01BRMIX: very serious problems
 the old and the new charge density differ
 old charge density:   554.96347 new  539.86878
    0.276E+01
DAV:  44    -0.163070231585E+07   -0.16064E+07   -0.58842E+04  4176   0.786E+01BRMIX: very serious problems
 the old and the new charge density differ
 old charge density:   539.86878 new  554.21144
    0.583E+02
DAV:  45    -0.248079703443E+05    0.16059E+07   -0.86395E+03  3720   0.956E+01BRMIX: very serious problems
 the old and the new charge density differ
 old charge density:   554.21144 new  552.09987
    0.715E+01
DAV:  46    -0.117325135409E+07   -0.11484E+07   -0.73539E+03  4224   0.883E+01BRMIX: very serious problems
 the old and the new charge density differ
 old charge density:   552.09987 new  552.44690
    0.186E+02
DAV:  47    -0.185007190164E+05    0.11548E+07   -0.76083E+03  4456   0.973E+01BRMIX: very serious problems
 the old and the new charge density differ
 old charge density:   552.44690 new  546.55852
    0.367E+01
DAV:  48    -0.232612737421E+07   -0.23076E+07   -0.41167E+05  4196   0.911E+01BRMIX: very serious problems
 the old and the new charge density differ
 old charge density:   546.55852 new  555.00082
    0.761E+02
DAV:  49    -0.219294466860E+05    0.23042E+07   -0.96103E+03  3840   0.101E+02BRMIX: very serious problems
 the old and the new charge density differ
 old charge density:   555.00082 new  553.72154
    0.784E+01
DAV:  50    -0.322994659558E+05   -0.10370E+05   -0.75155E+03  4388   0.898E+01BRMIX: very serious problems
 the old and the new charge density differ
 old charge density:   553.72154 new  555.93536
    0.318E+01
DAV:  51    -0.137741165999E+07   -0.13451E+07   -0.13330E+06  4760   0.102E+02BRMIX: very serious problems
 the old and the new charge density differ
 old charge density:   555.93536 new  553.57220
    0.704E+02
DAV:  52    -0.263413353315E+05    0.13511E+07   -0.10072E+04  4184   0.104E+02BRMIX: very serious problems
 the old and the new charge density differ
 old charge density:   553.57220 new  547.04094
    0.299E+01
DAV:  53    -0.918689026888E+06   -0.89235E+06   -0.52913E+05  4240   0.894E+01BRMIX: very serious problems
 the old and the new charge density differ
 old charge density:   547.04094 new  554.54804
    0.781E+02
DAV:  54    -0.233884484189E+05    0.89530E+06   -0.10043E+04  3856   0.996E+01BRMIX: very serious problems
 the old and the new charge density differ
 old charge density:   554.54804 new  545.84625
    0.280E+01
DAV:  55    -0.172487394885E+07   -0.17015E+07   -0.34843E+05  4576   0.911E+01BRMIX: very serious problems
 the old and the new charge density differ
 old charge density:   545.84625 new  553.12050
    0.674E+02
DAV:  56    -0.250124883498E+05    0.16999E+07   -0.99176E+03  3872   0.976E+01BRMIX: very serious problems
 the old and the new charge density differ
 old charge density:   553.12050 new  551.27449
    0.397E+01
DAV:  57    -0.137419648085E+07   -0.13492E+07   -0.94597E+03  4424   0.114E+02BRMIX: very serious problems
 the old and the new charge density differ
 old charge density:   551.27449 new  549.65069
    0.186E+02
DAV:  58    -0.262329185344E+05    0.13480E+07   -0.96066E+03  4032   0.102E+02BRMIX: very serious problems
 the old and the new charge density differ
 old charge density:   549.65069 new  554.35310
    0.746E+01
DAV:  59    -0.543064649703E+07   -0.54044E+07   -0.87792E+03  4760   0.109E+02BRMIX: very serious problems
 the old and the new charge density differ
 old charge density:   554.35310 new  558.36450
    0.253E+02
DAV:  60    -0.302605007443E+05    0.54004E+07   -0.82875E+03  3936   0.107E+02BRMIX: very serious problems
 the old and the new charge density differ
 old charge density:   558.36450 new  553.44855
    0.121E+02
DAV:  61    -0.406380500367E+07   -0.40335E+07   -0.89420E+03  4520   0.967E+01BRMIX: very serious problems
 the old and the new charge density differ
 old charge density:   553.44855 new  554.58983
    0.164E+02
DAV:  62    -0.374766019976E+05    0.40263E+07   -0.10956E+04  4664   0.139E+02BRMIX: very serious problems
 the old and the new charge density differ
 old charge density:   554.58983 new  566.65332
    0.757E+01
DAV:  63    -0.547481675462E+07   -0.54373E+07   -0.46729E+06  4272   0.128E+02BRMIX: very serious problems
 the old and the new charge density differ
 old charge density:   566.65332 new  578.79182
    0.934E+02
DAV:  64    -0.302963198445E+05    0.54445E+07   -0.10072E+04  4504   0.146E+02BRMIX: very serious problems
 the old and the new charge density differ
 old charge density:   578.79182 new  566.64091
    0.877E+01
DAV:  65    -0.617080039945E+05   -0.31412E+05   -0.88635E+03  4232   0.117E+02BRMIX: very serious problems
 the old and the new charge density differ
 old charge density:   566.64091 new  579.77166
    0.590E+01
DAV:  66    -0.131398911704E+07   -0.12523E+07   -0.70011E+03  4632   0.146E+02BRMIX: very serious problems
 the old and the new charge density differ
 old charge density:   579.77166 new  576.75228
    0.176E+02
DAV:  67    -0.330607585600E+05    0.12809E+07   -0.80074E+03  4360   0.115E+02BRMIX: very serious problems
 the old and the new charge density differ
 old charge density:   576.75228 new  572.27179
    0.562E+01
DAV:  68    -0.547397604860E+07   -0.54409E+07   -0.83383E+03  4504   0.110E+02BRMIX: very serious problems
 the old and the new charge density differ
 old charge density:   572.27179 new  584.81043
    0.253E+02
DAV:  69    -0.373802770454E+05    0.54366E+07   -0.68635E+03  4000   0.128E+02BRMIX: very serious problems
 the old and the new charge density differ
 old charge density:   584.81043 new  584.81993
    0.560E+01
DAV:  70    -0.458285068607E+07   -0.45455E+07   -0.17640E+07  4384   0.135E+02BRMIX: very serious problems
 the old and the new charge density differ
 old charge density:   584.81993 new  590.60486
    0.916E+02
DAV:  71    -0.352372099136E+05    0.45476E+07   -0.91675E+03  4312   0.131E+02BRMIX: very serious problems
 the old and the new charge density differ
 old charge density:   590.60486 new  584.57299
    0.831E+01
DAV:  72    -0.772044014013E+06   -0.73681E+06   -0.70233E+03  4232   0.121E+02BRMIX: very serious problems
 the old and the new charge density differ
 old charge density:   584.57299 new  595.63268
    0.914E+01
DAV:  73    -0.400672251199E+05    0.73198E+06   -0.56443E+03  4232   0.142E+02BRMIX: very serious problems
 the old and the new charge density differ
 old charge density:   595.63268 new  597.34658
    0.378E+01
DAV:  74    -0.224386070520E+07   -0.22038E+07   -0.54773E+03  4560   0.145E+02BRMIX: very serious problems
 the old and the new charge density differ
 old charge density:   597.34658 new  606.36733
    0.210E+02
DAV:  75    -0.207861328008E+05    0.22231E+07   -0.44404E+03  4192   0.155E+02BRMIX: very serious problems
 the old and the new charge density differ
 old charge density:   606.36733 new  602.46905
    0.668E+01
DAV:  76    -0.791217128220E+07   -0.78914E+07   -0.48937E+07  4416   0.142E+02BRMIX: very serious problems
 the old and the new charge density differ
 old charge density:   602.46905 new  599.63739
    0.125E+03
DAV:  77    -0.343885805984E+05    0.78778E+07   -0.93012E+03  4192   0.138E+02BRMIX: very serious problems
 the old and the new charge density differ
 old charge density:   599.63739 new  599.07907
    0.482E+01
DAV:  78    -0.171137353928E+07   -0.16770E+07   -0.54051E+03  4328   0.134E+02BRMIX: very serious problems
 the old and the new charge density differ
 old charge density:   599.07907 new  618.13983
    0.121E+02
DAV:  79    -0.314565108845E+05    0.16799E+07   -0.29980E+03  4448   0.161E+02BRMIX: very serious problems
 the old and the new charge density differ
 old charge density:   618.13983 new  614.25924
    0.333E+01
DAV:  80    -0.256315276236E+07   -0.25317E+07   -0.36082E+03  4624   0.144E+02BRMIX: very serious problems
 the old and the new charge density differ
 old charge density:   614.25924 new  611.04475
    0.221E+02
DAV:  81    -0.208867894133E+05    0.25423E+07   -0.42323E+03  4500   0.162E+02BRMIX: very serious problems
 the old and the new charge density differ
 old charge density:   611.04475 new  598.23454
    0.296E+01
DAV:  82    -0.104870939563E+08   -0.10466E+08   -0.71836E+07  4344   0.141E+02BRMIX: very serious problems
 the old and the new charge density differ
 old charge density:   598.23454 new  600.90955
    0.103E+03
DAV:  83    -0.219661503381E+07    0.82905E+07   -0.83392E+03  4236   0.132E+02BRMIX: very serious problems
 the old and the new charge density differ
 old charge density:   600.90955 new  606.54580
    0.188E+02
DAV:  84    -0.435274454569E+05    0.21531E+07   -0.48485E+03  4232   0.137E+02BRMIX: very serious problems
 the old and the new charge density differ
 old charge density:   606.54580 new  607.68423
    0.520E+01
DAV:  85    -0.101226676376E+08   -0.10079E+08   -0.28619E+07  4600   0.143E+02BRMIX: very serious problems
 the old and the new charge density differ
 old charge density:   607.68423 new  609.56479
    0.111E+03
DAV:  86    -0.543786216979E+05    0.10068E+08   -0.83068E+03  4308   0.147E+02BRMIX: very serious problems
 the old and the new charge density differ
 old charge density:   609.56479 new  598.28209
    0.854E+01
DAV:  87    -0.317605135230E+07   -0.31217E+07   -0.63910E+03  4416   0.152E+02BRMIX: very serious problems
 the old and the new charge density differ
 old charge density:   598.28209 new  600.33033
    0.356E+02
DAV:  88    -0.109959636159E+06    0.30661E+07   -0.88442E+03  4132   0.157E+02BRMIX: very serious problems
 the old and the new charge density differ
 old charge density:   600.33033 new  594.71457
    0.954E+01
DAV:  89    -0.501211044777E+07   -0.49022E+07   -0.72305E+03  4668   0.180E+02BRMIX: very serious problems
 the old and the new charge density differ
 old charge density:   594.71457 new  579.42168
    0.228E+02
DAV:  90    -0.166806474135E+08   -0.11669E+08   -0.86135E+07  4252   0.181E+02BRMIX: very serious problems
 the old and the new charge density differ
 old charge density:   579.42168 new  574.36235
    0.114E+03
DAV:  91    -0.731352132416E+06    0.15949E+08   -0.12934E+04  4980   0.205E+02BRMIX: very serious problems
 the old and the new charge density differ
 old charge density:   574.36235 new  563.69102
    0.138E+02
DAV:  92    -0.607442963484E+05    0.67061E+06   -0.11105E+04  4368   0.219E+02BRMIX: very serious problems
 the old and the new charge density differ
 old charge density:   563.69102 new  557.60072
    0.671E+01
DAV:  93    -0.388762670503E+08   -0.38816E+08   -0.33679E+08  4300   0.252E+02BRMIX: very serious problems
 the old and the new charge density differ
 old charge density:   557.60072 new  582.72001
    0.123E+03
DAV:  94    -0.448009284394E+07    0.34396E+08   -0.11605E+04  4304   0.249E+02BRMIX: very serious problems
 the old and the new charge density differ
 old charge density:   582.72001 new  566.11919
    0.226E+02
DAV:  95    -0.119712480993E+08   -0.74912E+07   -0.25710E+04  4060   0.220E+02BRMIX: very serious problems
 the old and the new charge density differ
 old charge density:   566.11919 new  562.23251
    0.692E+02
DAV:  96    -0.647821568432E+07    0.54930E+07   -0.12094E+04  4208   0.235E+02BRMIX: very serious problems
 the old and the new charge density differ
 old charge density:   562.23251 new  571.31833
    0.279E+02
DAV:  97    -0.704578294005E+05    0.64078E+07   -0.12158E+04  4576   0.251E+02BRMIX: very serious problems
 the old and the new charge density differ
 old charge density:   571.31833 new  577.76229
    0.196E+02
DAV:  98    -0.172978838439E+08   -0.17227E+08   -0.30840E+07  4324   0.256E+02BRMIX: very serious problems
 the old and the new charge density differ
 old charge density:   577.76229 new  575.01821
    0.109E+03
DAV:  99    -0.146522942470E+08    0.26456E+07   -0.13473E+04  4400   0.282E+02BRMIX: very serious problems
 the old and the new charge density differ
 old charge density:   575.01821 new  569.30752
    0.291E+02
DAV: 100    -0.249467721888E+07    0.12158E+08   -0.89904E+04  4344   0.253E+02
 -----------------------------------------------------------------------------
|                                                                             |
|           W    W    AA    RRRRR   N    N  II  N    N   GGGG   !!!           |
|           W    W   A  A   R    R  NN   N  II  NN   N  G    G  !!!           |
|           W    W  A    A  R    R  N N  N  II  N N  N  G       !!!           |
|           W WW W  AAAAAA  RRRRR   N  N N  II  N  N N  G  GGG   !            |
|           WW  WW  A    A  R   R   N   NN  II  N   NN  G    G                |
|           W    W  A    A  R    R  N    N  II  N    N   GGGG   !!!           |
|                                                                             |
|     The electronic self-consistency was not achieved in the given           |
|     number of steps (NELM). The forces and other quantities evaluated       |
|     might not be reliable so examine the results carefully. If you find     |
|     spurious results, we suggest increasing NELM, if you were close to      |
|     convergence or switching to a different ALGO or adjusting the           |
|     density mixing parameters otherwise.                                    |
|                                                                             |
 -----------------------------------------------------------------------------

BRMIX: very serious problems
 the old and the new charge density differ
 old charge density:   569.30752 new  583.99405
   9 F= -.24946772E+07 E0= -.24946762E+07  d E =-.249383E+07
 BRION: g(F)=  0.367E+10 g(S)=  0.000E+00 retain N=  3 mean eig= 4.67
 eig:   6.986  6.986  0.030
 bond charge predicted
       N       E                     dE             d eps       ncg     rms          rms(c)
DAV:   1    -0.137496415000E+03    0.14652E+08   -0.31133E+04  4060   0.194E+02BRMIX: very serious problems
 the old and the new charge density differ
 old charge density:   583.99405 new  640.00001
    0.421E+02
DAV:   2    -0.822592844615E+03   -0.68510E+03   -0.45549E+03  4232   0.754E+01    0.846E+01
DAV:   3    -0.935733325046E+04   -0.85347E+04   -0.75229E+04  5600   0.330E+02    0.213E+02
DAV:   4    -0.144391350565E+04    0.79134E+04   -0.13423E+04  5220   0.126E+02    0.953E+01
DAV:   5    -0.799991395092E+03    0.64392E+03   -0.85914E+03  5140   0.874E+01    0.667E+01
DAV:   6    -0.832607796330E+03   -0.32616E+02   -0.50072E+03  4888   0.791E+01    0.751E+01
DAV:   7    -0.866837369570E+03   -0.34230E+02   -0.16313E+03  5024   0.481E+01    0.823E+01
DAV:   8    -0.876739132236E+03   -0.99018E+01   -0.37734E+02  4512   0.226E+01    0.815E+01
DAV:   9    -0.874990697070E+03    0.17484E+01   -0.58733E+01  4760   0.911E+00    0.783E+01
DAV:  10    -0.871772371545E+03    0.32183E+01   -0.56122E+00  4184   0.560E+00    0.710E+01
DAV:  11    -0.869307690145E+03    0.24647E+01   -0.50888E+00  3992   0.429E+00    0.669E+01
DAV:  12    -0.860557261856E+03    0.87504E+01   -0.66743E+00  4080   0.536E+00    0.392E+01
DAV:  13    -0.852319553671E+03    0.82377E+01   -0.16662E+01  3880   0.741E+00    0.684E+00
DAV:  14    -0.849398536764E+03    0.29210E+01   -0.11688E+01  3864   0.495E+00    0.158E+01
DAV:  15    -0.848695647307E+03    0.70289E+00   -0.23795E+00  4072   0.279E+00    0.165E+01
DAV:  16    -0.848094590145E+03    0.60106E+00   -0.10092E+00  4072   0.252E+00    0.153E+01
DAV:  17    -0.847861524010E+03    0.23307E+00   -0.24244E+00  4304   0.291E+00    0.133E+01
DAV:  18    -0.847780105257E+03    0.81419E-01   -0.15167E+00  3872   0.201E+00    0.961E+00
DAV:  19    -0.847899274529E+03   -0.11917E+00   -0.69229E-01  4000   0.162E+00    0.539E+00
DAV:  20    -0.847683575939E+03    0.21570E+00   -0.62004E-01  3992   0.112E+00    0.356E+00
DAV:  21    -0.847532097818E+03    0.15148E+00   -0.11704E-01  4224   0.644E-01    0.353E+00
DAV:  22    -0.847457010123E+03    0.75088E-01   -0.51625E-02  4000   0.410E-01    0.333E+00
DAV:  23    -0.847428265892E+03    0.28744E-01   -0.29258E-02  3984   0.325E-01    0.247E+00
DAV:  24    -0.847245217830E+03    0.18305E+00   -0.11502E-01  4848   0.984E-01    0.125E+00
DAV:  25    -0.847168963762E+03    0.76254E-01   -0.16039E-01  4288   0.947E-01    0.221E+00
DAV:  26    -0.847150226406E+03    0.18737E-01   -0.10536E-01  3864   0.543E-01    0.159E+00
DAV:  27    -0.847151835901E+03   -0.16095E-02   -0.41700E-02  3800   0.237E-01    0.156E+00
DAV:  28    -0.847153831222E+03   -0.19953E-02   -0.22176E-03  4392   0.138E-01    0.150E+00
DAV:  29    -0.847169190858E+03   -0.15360E-01   -0.16305E-02  5824   0.358E-01    0.143E+00
DAV:  30    -0.848880468140E+03   -0.17113E+01   -0.50892E+00  4224   0.348E-01BRMIX: very serious problems
 the old and the new charge density differ
 old charge density:   640.00194 new  640.70927
    0.118E+00
DAV:  31    -0.849356864366E+03   -0.47640E+00   -0.24202E+01  4208   0.599E-01BRMIX: very serious problems
 the old and the new charge density differ
 old charge density:   640.70927 new  640.10076
    0.132E+00
DAV:  32    -0.874444605466E+03   -0.25088E+02    0.15620E+00  3864   0.865E-01BRMIX: very serious problems
 the old and the new charge density differ
 old charge density:   640.10076 new  647.25441
    0.248E+00
DAV:  33    -0.971366376064E+03   -0.96922E+02   -0.24470E+02  4184   0.285E+00BRMIX: very serious problems
 the old and the new charge density differ
 old charge density:   647.25441 new  642.65338
    0.348E+00
DAV:  34    -0.135261806204E+04   -0.38125E+03   -0.50471E+02  3752   0.348E+00BRMIX: very serious problems
 the old and the new charge density differ
 old charge density:   642.65338 new  644.19309
    0.174E+01
DAV:  35    -0.370767807485E+04   -0.23551E+04   -0.58535E+02  3624   0.797E+00BRMIX: very serious problems
 the old and the new charge density differ
 old charge density:   644.19309 new  634.70245
    0.108E+01
DAV:  36    -0.959064174516E+04   -0.58830E+04   -0.70618E+02  3436   0.982E+00BRMIX: very serious problems
 the old and the new charge density differ
 old charge density:   634.70245 new  638.21940
    0.890E+00
DAV:  37    -0.925599860560E+04    0.33464E+03   -0.10224E+03  3508   0.136E+01BRMIX: very serious problems
 the old and the new charge density differ
 old charge density:   638.21940 new  631.19065
    0.137E+01
DAV:  38    -0.327241062368E+05   -0.23468E+05   -0.14085E+03  3536   0.172E+01BRMIX: very serious problems
 the old and the new charge density differ
 old charge density:   631.19065 new  632.46148
    0.138E+01
DAV:  39    -0.924225802911E+04    0.23482E+05   -0.17469E+03  3600   0.231E+01BRMIX: very serious problems
 the old and the new charge density differ
 old charge density:   632.46148 new  627.75341
    0.158E+01
DAV:  40    -0.732848155709E+04    0.19138E+04   -0.25814E+03  3564   0.315E+01BRMIX: very serious problems
 the old and the new charge density differ
 old charge density:   627.75341 new  622.54908
    0.173E+01
DAV:  41    -0.165021290451E+05   -0.91736E+04   -0.21375E+03  3616   0.515E+01BRMIX: very serious problems
 the old and the new charge density differ
 old charge density:   622.54908 new  603.77879
    0.188E+01
DAV:  42    -0.304782058748E+05   -0.13976E+05   -0.28965E+03  3496   0.533E+01BRMIX: very serious problems
 the old and the new charge density differ
 old charge density:   603.77879 new  602.73086
    0.173E+01
DAV:  43    -0.220928611862E+05    0.83853E+04   -0.29685E+03  4424   0.577E+01    0.206E+01
DAV:  44    -0.221967347733E+05   -0.10387E+03   -0.30167E+03  4488   0.679E+01BRMIX: very serious problems
 the old and the new charge density differ
 old charge density:   602.73424 new  585.05808
    0.182E+01
DAV:  45    -0.563499625023E+05   -0.34153E+05   -0.44293E+03  3472   0.696E+01BRMIX: very serious problems
 the old and the new charge density differ
 old charge density:   585.05808 new  587.90068
    0.199E+01
DAV:  46    -0.162026494208E+05    0.40147E+05   -0.43403E+03  3680   0.897E+01BRMIX: very serious problems
 the old and the new charge density differ
 old charge density:   587.90068 new  570.27578
    0.674E+01
DAV:  47    -0.763719914548E+06   -0.74752E+06   -0.57093E+03  3680   0.799E+01BRMIX: very serious problems
 the old and the new charge density differ
 old charge density:   570.27578 new  564.94033
    0.453E+01
DAV:  48    -0.171901689696E+05    0.74653E+06   -0.60042E+03  3784   0.912E+01BRMIX: very serious problems
 the old and the new charge density differ
 old charge density:   564.94033 new  549.53495
    0.248E+01
DAV:  49    -0.240354938684E+07   -0.23864E+07   -0.77824E+03  3548   0.752E+01BRMIX: very serious problems
 the old and the new charge density differ
 old charge density:   549.53495 new  558.27685
    0.266E+02
DAV:  50    -0.318538798505E+05    0.23717E+07   -0.70254E+03  3440   0.982E+01BRMIX: very serious problems
 the old and the new charge density differ
 old charge density:   558.27685 new  549.97668
    0.416E+01
DAV:  51    -0.405140578173E+05   -0.86602E+04   -0.72005E+03  3780   0.907E+01BRMIX: very serious problems
 the old and the new charge density differ
 old charge density:   549.97668 new  545.83686
    0.288E+01
DAV:  52    -0.928905695079E+06   -0.88839E+06   -0.75803E+03  4400   0.868E+01BRMIX: very serious problems
 the old and the new charge density differ
 old charge density:   545.83686 new  542.68779
    0.141E+02
DAV:  53    -0.563419792383E+05    0.87256E+06   -0.76135E+03  3696   0.813E+01BRMIX: very serious problems
 the old and the new charge density differ
 old charge density:   542.68779 new  551.16501
    0.694E+01
DAV:  54    -0.142694106693E+07   -0.13706E+07   -0.73588E+03  3540   0.848E+01BRMIX: very serious problems
 the old and the new charge density differ
 old charge density:   551.16501 new  552.75685
    0.142E+02
DAV:  55    -0.251384179025E+05    0.14018E+07   -0.67908E+03  3996   0.880E+01BRMIX: very serious problems
 the old and the new charge density differ
 old charge density:   552.75685 new  543.01613
    0.760E+01
DAV:  56    -0.215303646778E+07   -0.21279E+07   -0.79114E+03  3488   0.752E+01BRMIX: very serious problems
 the old and the new charge density differ
 old charge density:   543.01613 new  548.80732
    0.104E+02
DAV:  57    -0.223269677296E+05    0.21307E+07   -0.72000E+03  3700   0.876E+01BRMIX: very serious problems
 the old and the new charge density differ
 old charge density:   548.80732 new  541.85505
    0.701E+01
DAV:  58    -0.371959460630E+07   -0.36973E+07   -0.79690E+03  3640   0.817E+01BRMIX: very serious problems
 the old and the new charge density differ
 old charge density:   541.85505 new  539.45707
    0.165E+02
DAV:  59    -0.335680134446E+05    0.36860E+07   -0.76237E+03  3852   0.772E+01BRMIX: very serious problems
 the old and the new charge density differ
 old charge density:   539.45707 new  541.94384
    0.112E+02
DAV:  60    -0.410489670868E+05   -0.74810E+04   -0.77898E+03  3568   0.729E+01BRMIX: very serious problems
 the old and the new charge density differ
 old charge density:   541.94384 new  548.14376
    0.921E+01
DAV:  61    -0.250560470165E+05    0.15993E+05   -0.73597E+03  3604   0.850E+01BRMIX: very serious problems
 the old and the new charge density differ
 old charge density:   548.14376 new  543.01912
    0.558E+01
DAV:  62    -0.638783787249E+07   -0.63628E+07   -0.78597E+03  4008   0.792E+01BRMIX: very serious problems
 the old and the new charge density differ
 old charge density:   543.01912 new  544.40163
    0.293E+02
DAV:  63    -0.379365615429E+05    0.63499E+07   -0.71328E+03  3628   0.799E+01BRMIX: very serious problems
 the old and the new charge density differ
 old charge density:   544.40163 new  541.54906
    0.129E+02
DAV:  64    -0.375667256817E+05    0.36984E+03   -0.12731E+04  3684   0.683E+01BRMIX: very serious problems
 the old and the new charge density differ
 old charge density:   541.54906 new  544.11481
    0.240E+02
DAV:  65    -0.428982045116E+07   -0.42523E+07   -0.86851E+03  3532   0.760E+01BRMIX: very serious problems
 the old and the new charge density differ
 old charge density:   544.11481 new  547.74645
    0.173E+02
DAV:  66    -0.304342914357E+05    0.42594E+07   -0.71674E+03  3432   0.798E+01BRMIX: very serious problems
 the old and the new charge density differ
 old charge density:   547.74645 new  546.99608
    0.762E+01
DAV:  67    -0.277445236106E+07   -0.27440E+07   -0.17607E+04  4424   0.715E+01BRMIX: very serious problems
 the old and the new charge density differ
 old charge density:   546.99608 new  558.76464
    0.407E+02
DAV:  68    -0.292755300283E+05    0.27452E+07   -0.77731E+03  3396   0.923E+01BRMIX: very serious problems
 the old and the new charge density differ
 old charge density:   558.76464 new  544.19963
    0.707E+01
DAV:  69    -0.256207902908E+05    0.36547E+04   -0.44231E+04  3716   0.740E+01BRMIX: very serious problems
 the old and the new charge density differ
 old charge density:   544.19963 new  544.46585
    0.344E+02
DAV:  70    -0.286427710906E+05   -0.30220E+04   -0.91850E+03  3864   0.810E+01BRMIX: very serious problems
 the old and the new charge density differ
 old charge density:   544.46585 new  546.44261
    0.297E+01
DAV:  71    -0.536356404707E+06   -0.50771E+06   -0.75874E+03  5344   0.883E+01BRMIX: very serious problems
 the old and the new charge density differ
 old charge density:   546.44261 new  553.44447
    0.156E+02
DAV:  72    -0.218480374916E+05    0.51451E+06   -0.70213E+03  3824   0.101E+02BRMIX: very serious problems
 the old and the new charge density differ
 old charge density:   553.44447 new  541.07227
    0.364E+01
DAV:  73    -0.199504437915E+07   -0.19732E+07   -0.79869E+03  4384   0.861E+01BRMIX: very serious problems
 the old and the new charge density differ
 old charge density:   541.07227 new  549.41045
    0.224E+02
DAV:  74    -0.356559077719E+05    0.19594E+07   -0.70498E+03  3748   0.901E+01BRMIX: very serious problems
 the old and the new charge density differ
 old charge density:   549.41045 new  548.80790
    0.112E+02
DAV:  75    -0.137702829010E+07   -0.13414E+07   -0.74070E+03  4096   0.829E+01BRMIX: very serious problems
 the old and the new charge density differ
 old charge density:   548.80790 new  556.41201
    0.236E+02
DAV:  76    -0.184111350967E+05    0.13586E+07   -0.66181E+03  3560   0.909E+01BRMIX: very serious problems
 the old and the new charge density differ
 old charge density:   556.41201 new  546.62267
    0.995E+01
DAV:  77    -0.271349522602E+07   -0.26951E+07   -0.32051E+04  4312   0.794E+01BRMIX: very serious problems
 the old and the new charge density differ
 old charge density:   546.62267 new  550.22373
    0.437E+02
DAV:  78    -0.437810750008E+05    0.26697E+07   -0.86340E+03  3780   0.861E+01BRMIX: very serious problems
 the old and the new charge density differ
 old charge density:   550.22373 new  543.89487
    0.848E+01
DAV:  79    -0.419162811911E+07   -0.41478E+07   -0.79441E+03  4088   0.785E+01BRMIX: very serious problems
 the old and the new charge density differ
 old charge density:   543.89487 new  560.13437
    0.186E+02
DAV:  80    -0.246060651927E+05    0.41670E+07   -0.63309E+03  3480   0.104E+02BRMIX: very serious problems
 the old and the new charge density differ
 old charge density:   560.13437 new  548.18433
    0.947E+01
DAV:  81    -0.260169928184E+07   -0.25771E+07   -0.76086E+03  3600   0.851E+01BRMIX: very serious problems
 the old and the new charge density differ
 old charge density:   548.18433 new  554.65813
    0.170E+02
DAV:  82    -0.302995907149E+05    0.25714E+07   -0.81619E+03  4652   0.115E+02BRMIX: very serious problems
 the old and the new charge density differ
 old charge density:   554.65813 new  550.65061
    0.854E+01
DAV:  83    -0.530741561450E+05   -0.22775E+05   -0.24571E+05  4156   0.948E+01BRMIX: very serious problems
 the old and the new charge density differ
 old charge density:   550.65061 new  555.88358
    0.474E+02
DAV:  84    -0.364344136906E+07   -0.35904E+07   -0.10259E+04  4256   0.105E+02BRMIX: very serious problems
 the old and the new charge density differ
 old charge density:   555.88358 new  547.17843
    0.199E+02
DAV:  85    -0.433134837543E+05    0.36001E+07   -0.86789E+03  3872   0.895E+01BRMIX: very serious problems
 the old and the new charge density differ
 old charge density:   547.17843 new  552.52434
    0.818E+01
DAV:  86    -0.193490323147E+07   -0.18916E+07   -0.81451E+03  4576   0.924E+01BRMIX: very serious problems
 the old and the new charge density differ
 old charge density:   552.52434 new  559.60842
    0.129E+02
DAV:  87    -0.381328333096E+05    0.18968E+07   -0.10025E+04  4424   0.161E+02BRMIX: very serious problems
 the old and the new charge density differ
 old charge density:   559.60842 new  567.57490
    0.760E+01
DAV:  88    -0.635322408246E+07   -0.63151E+07   -0.63634E+05  4296   0.125E+02BRMIX: very serious problems
 the old and the new charge density differ
 old charge density:   567.57490 new  568.76221
    0.986E+02
DAV:  89    -0.349177976118E+05    0.63183E+07   -0.10876E+04  4504   0.123E+02BRMIX: very serious problems
 the old and the new charge density differ
 old charge density:   568.76221 new  567.98472
    0.766E+01
DAV:  90    -0.548414906717E+07   -0.54492E+07   -0.82862E+03  4504   0.123E+02BRMIX: very serious problems
 the old and the new charge density differ
 old charge density:   567.98472 new  574.68195
    0.199E+02
DAV:  91    -0.257590683771E+05    0.54584E+07   -0.76219E+03  4320   0.133E+02BRMIX: very serious problems
 the old and the new charge density differ
 old charge density:   574.68195 new  572.41959
    0.508E+01
DAV:  92    -0.393434994632E+07   -0.39086E+07   -0.11823E+07  4624   0.135E+02BRMIX: very serious problems
 the old and the new charge density differ
 old charge density:   572.41959 new  587.38787
    0.858E+02
DAV:  93    -0.407461945488E+05    0.38936E+07   -0.90903E+03  4232   0.139E+02BRMIX: very serious problems
 the old and the new charge density differ
 old charge density:   587.38787 new  585.60176
    0.589E+01
DAV:  94    -0.810234964248E+05   -0.40277E+05   -0.65943E+03  4356   0.136E+02BRMIX: very serious problems
 the old and the new charge density differ
 old charge density:   585.60176 new  594.00851
    0.494E+01
DAV:  95    -0.283339670775E+07   -0.27524E+07   -0.55893E+03  4328   0.162E+02BRMIX: very serious problems
 the old and the new charge density differ
 old charge density:   594.00851 new  582.60260
    0.201E+02
DAV:  96    -0.115283094433E+07    0.16806E+07   -0.69878E+03  4328   0.124E+02BRMIX: very serious problems
 the old and the new charge density differ
 old charge density:   582.60260 new  580.23470
    0.136E+02
DAV:  97    -0.375226645835E+05    0.11153E+07   -0.75603E+03  4408   0.112E+02BRMIX: very serious problems
 the old and the new charge density differ
 old charge density:   580.23470 new  592.57582
    0.628E+01
DAV:  98    -0.101688460285E+08   -0.10131E+08   -0.43796E+07  5072   0.145E+02BRMIX: very serious problems
 the old and the new charge density differ
 old charge density:   592.57582 new  590.21217
    0.121E+03
DAV:  99    -0.380241858933E+05    0.10131E+08   -0.10310E+04  4120   0.116E+02BRMIX: very serious problems
 the old and the new charge density differ
 old charge density:   590.21217 new  590.77804
    0.104E+02
DAV: 100    -0.590148473868E+07   -0.58635E+07   -0.61740E+03  4308   0.116E+02
 -----------------------------------------------------------------------------
|                                                                             |
|           W    W    AA    RRRRR   N    N  II  N    N   GGGG   !!!           |
|           W    W   A  A   R    R  NN   N  II  NN   N  G    G  !!!           |
|           W    W  A    A  R    R  N N  N  II  N N  N  G       !!!           |
|           W WW W  AAAAAA  RRRRR   N  N N  II  N  N N  G  GGG   !            |
|           WW  WW  A    A  R   R   N   NN  II  N   NN  G    G                |
|           W    W  A    A  R    R  N    N  II  N    N   GGGG   !!!           |
|                                                                             |
|     The electronic self-consistency was not achieved in the given           |
|     number of steps (NELM). The forces and other quantities evaluated       |
|     might not be reliable so examine the results carefully. If you find     |
|     spurious results, we suggest increasing NELM, if you were close to      |
|     convergence or switching to a different ALGO or adjusting the           |
|     density mixing parameters otherwise.                                    |
|                                                                             |
 -----------------------------------------------------------------------------

BRMIX: very serious problems
 the old and the new charge density differ
 old charge density:   590.77804 new  600.18468
  10 F= -.59014847E+07 E0= -.59014843E+07  d E =-.340681E+07
 BRION: g(F)=  0.674E+10 g(S)=  0.000E+00 retain N=  4 mean eig= 3.70
 eig:   6.961  6.961  0.844  0.016
 bond charge predicted
       N       E                     dE             d eps       ncg     rms          rms(c)
DAV:   1    -0.529753393437E+03    0.37494E+05   -0.19437E+04  4072   0.117E+02BRMIX: very serious problems
 the old and the new charge density differ
 old charge density:   600.18468 new  640.00001
    0.221E+02
DAV:   2    -0.187878347930E+04   -0.13490E+04   -0.83264E+03  5656   0.101E+02    0.128E+02
DAV:   3    -0.174003203938E+05   -0.15522E+05   -0.27383E+05  5820   0.436E+02    0.227E+02
DAV:   4    -0.154184829778E+05    0.19818E+04   -0.95834E+04  5860   0.302E+02    0.237E+02
DAV:   5    -0.767117570389E+04    0.77473E+04   -0.52718E+04  6228   0.142E+02    0.181E+02
DAV:   6    -0.564855490736E+04    0.20226E+04   -0.11021E+04  5128   0.151E+02    0.115E+02
DAV:   7    -0.122368696528E+04    0.44249E+04   -0.11364E+04  4848   0.964E+01    0.914E+01
DAV:   8    -0.919030633548E+03    0.30466E+03   -0.39135E+03  5000   0.596E+01    0.731E+01
DAV:   9    -0.799084119937E+03    0.11995E+03   -0.18408E+03  5120   0.348E+01    0.626E+01
DAV:  10    -0.888332642663E+03   -0.89249E+02   -0.90740E+02  4848   0.246E+01    0.619E+01
DAV:  11    -0.881413685083E+03    0.69190E+01   -0.14085E+02  4272   0.125E+01    0.565E+01
DAV:  12    -0.887604845875E+03   -0.61912E+01   -0.30338E+01  4112   0.666E+00    0.531E+01
DAV:  13    -0.883037573409E+03    0.45673E+01   -0.88600E+00  4720   0.324E+00    0.461E+01
DAV:  14    -0.868429959362E+03    0.14608E+02   -0.10634E+01  4016   0.345E+00    0.348E+01
DAV:  15    -0.857199441347E+03    0.11231E+02   -0.24728E+01  4280   0.729E+00    0.216E+01
DAV:  16    -0.855748185621E+03    0.14513E+01   -0.66982E+00  4088   0.293E+00    0.217E+01
DAV:  17    -0.855693358556E+03    0.54827E-01   -0.24912E+00  3952   0.195E+00    0.197E+01
DAV:  18    -0.854314293826E+03    0.13791E+01   -0.46250E+00  5064   0.596E+00    0.177E+01
DAV:  19    -0.854767793406E+03   -0.45350E+00   -0.64499E+00  4160   0.450E+00    0.171E+01
DAV:  20    -0.855197335536E+03   -0.42954E+00   -0.37764E+00  4072   0.441E+00    0.122E+01
DAV:  21    -0.853017604791E+03    0.21797E+01   -0.38444E+00  3872   0.260E+00    0.792E+00
DAV:  22    -0.853243958591E+03   -0.22635E+00   -0.20070E+00  3920   0.184E+00    0.884E+00
DAV:  23    -0.851896492594E+03    0.13475E+01   -0.11953E+00  4112   0.148E+00    0.783E+00
DAV:  24    -0.852797849889E+03   -0.90136E+00   -0.66059E-01  3952   0.139E+00    0.933E+00
DAV:  25    -0.849828918044E+03    0.29689E+01   -0.24566E+00  4568   0.258E+00    0.584E+00
DAV:  26    -0.848797835165E+03    0.10311E+01   -0.14086E+00  4200   0.158E+00    0.457E+00
DAV:  27    -0.848196741798E+03    0.60109E+00   -0.21841E-01  4272   0.137E+00    0.386E+00
DAV:  28    -0.848169428235E+03    0.27314E-01   -0.28498E-01  3776   0.669E-01    0.369E+00
DAV:  29    -0.847924337617E+03    0.24509E+00   -0.17187E-01  4504   0.130E+00    0.322E+00
DAV:  30    -0.847748836544E+03    0.17550E+00   -0.12016E+00  4032   0.628E-01    0.269E+00
DAV:  31    -0.847296390637E+03    0.45245E+00   -0.12216E+00  4584   0.235E+00    0.189E+00
DAV:  32    -0.847313839710E+03   -0.17449E-01   -0.35613E-01  3784   0.623E-01    0.140E+00
DAV:  33    -0.847321384077E+03   -0.75444E-02   -0.30856E-02  3888   0.401E-01    0.125E+00
DAV:  34    -0.847290169981E+03    0.31214E-01   -0.14615E-01  4200   0.434E-01    0.102E+00
DAV:  35    -0.847241524297E+03    0.48646E-01   -0.32414E-01  4120   0.582E-01    0.117E+00
DAV:  36    -0.847204016978E+03    0.37507E-01   -0.27704E-01  4144   0.422E-01    0.738E-01
DAV:  37    -0.847196431654E+03    0.75853E-02   -0.30101E-02  4024   0.259E-01    0.642E-01
DAV:  38    -0.847198986719E+03   -0.25551E-02   -0.12880E-02  3952   0.180E-01    0.708E-01
DAV:  39    -0.847198306338E+03    0.68038E-03   -0.34981E-03  3840   0.902E-02    0.604E-01
DAV:  40    -0.847178483278E+03    0.19823E-01   -0.17115E-02  5000   0.307E-01    0.478E-01
DAV:  41    -0.847169564226E+03    0.89191E-02   -0.14936E-02  4112   0.247E-01    0.447E-01
DAV:  42    -0.847168746753E+03    0.81747E-03   -0.93565E-03  3776   0.116E-01    0.437E-01
DAV:  43    -0.847166808752E+03    0.19380E-02   -0.87139E-04  4416   0.421E-02    0.423E-01
DAV:  44    -0.847166866045E+03   -0.57293E-04   -0.23122E-04  3840   0.178E-02    0.419E-01
DAV:  45    -0.847163612688E+03    0.32534E-02   -0.13203E-03  4760   0.634E-02    0.427E-01
DAV:  46    -0.847155484123E+03    0.81286E-02   -0.59459E-03  4080   0.123E-01    0.302E-01
DAV:  47    -0.847143822623E+03    0.11662E-01   -0.10243E-02  4944   0.300E-01    0.223E-01
DAV:  48    -0.847142395106E+03    0.14275E-02   -0.84149E-03  3872   0.114E-01    0.186E-01
DAV:  49    -0.847142392103E+03    0.30026E-05   -0.13831E-03  3936   0.438E-02    0.201E-01
DAV:  50    -0.847142424492E+03   -0.32389E-04   -0.99278E-05  4288   0.146E-02    0.198E-01
DAV:  51    -0.847142430736E+03   -0.62444E-05   -0.30892E-05  3816   0.688E-03    0.202E-01
DAV:  52    -0.847138847736E+03    0.35830E-02   -0.62879E-03  4352   0.159E-01    0.248E-01
DAV:  53    -0.847139317003E+03   -0.46927E-03   -0.21023E-03  3696   0.521E-02    0.253E-01
DAV:  54    -0.847139539809E+03   -0.22281E-03   -0.14963E-04  4600   0.182E-02    0.262E-01
DAV:  55    -0.847139158437E+03    0.38137E-03   -0.82324E-05  4152   0.214E-02    0.248E-01
DAV:  56    -0.847138232703E+03    0.92573E-03   -0.48408E-04  4688   0.603E-02    0.214E-01
DAV:  57    -0.847137600807E+03    0.63190E-03   -0.11071E-03  4240   0.711E-02    0.169E-01
DAV:  58    -0.847137499988E+03    0.10082E-03   -0.61566E-03  4120   0.585E-02    0.200E-01
DAV:  59    -0.847137692428E+03   -0.19244E-03   -0.69404E-04  4232   0.616E-02    0.275E-01
DAV:  60    -0.847137329824E+03    0.36260E-03   -0.54210E-04  3888   0.335E-02    0.239E-01
DAV:  61    -0.847137319791E+03    0.10032E-04   -0.12761E-04  3736   0.138E-02    0.225E-01
DAV:  62    -0.847137198330E+03    0.12146E-03   -0.18749E-04  4568   0.395E-02    0.187E-01
DAV:  63    -0.847136618043E+03    0.58029E-03   -0.57395E-04  4432   0.502E-02    0.152E-01
DAV:  64    -0.847136479662E+03    0.13838E-03   -0.27747E-04  4016   0.285E-02    0.153E-01
DAV:  65    -0.847136425480E+03    0.54182E-04   -0.17672E-04  4072   0.171E-02    0.139E-01
DAV:  66    -0.847136405588E+03    0.19892E-04   -0.29725E-05  3968   0.703E-03    0.131E-01
DAV:  67    -0.847136331728E+03    0.73860E-04   -0.84925E-05  3768   0.233E-02    0.126E-01
DAV:  68    -0.847136329768E+03    0.19606E-05   -0.32969E-05  3704   0.653E-03    0.121E-01
DAV:  69    -0.847136308411E+03    0.21357E-04   -0.78773E-06  3712   0.438E-03    0.114E-01
DAV:  70    -0.847136270402E+03    0.38009E-04   -0.16621E-05  3744   0.101E-02    0.102E-01
DAV:  71    -0.847136247738E+03    0.22664E-04   -0.49284E-05  3872   0.107E-02    0.863E-02
DAV:  72    -0.847136236883E+03    0.10855E-04   -0.26629E-05  4056   0.149E-02    0.789E-02
DAV:  73    -0.847136239987E+03   -0.31037E-05   -0.67237E-05  3848   0.901E-03    0.750E-02
DAV:  74    -0.847136241547E+03   -0.15605E-05   -0.90560E-06  3760   0.376E-03    0.775E-02
DAV:  75    -0.847136242231E+03   -0.68339E-06   -0.23014E-06  2648   0.296E-03
  11 F= -.84713624E+03 E0= -.84710772E+03  d E =0.590064E+07
 BRION: g(F)=  0.118E-02 g(S)=  0.000E+00 retain N=  2 mean eig= 1.09
 eig:   0.000  2.181
 bond charge predicted
       N       E                     dE             d eps       ncg     rms          rms(c)
DAV:   1    -0.847137195242E+03   -0.95370E-03   -0.98338E-03  3296   0.118E-01    0.910E-02
DAV:   2    -0.847138257416E+03   -0.10622E-02   -0.55243E-03  4504   0.862E-02    0.179E-01
DAV:   3    -0.847137415322E+03    0.84209E-03   -0.18486E-02  4196   0.111E-01    0.995E-02
DAV:   4    -0.847137518757E+03   -0.10343E-03   -0.21820E-03  4368   0.108E-01    0.433E-02
DAV:   5    -0.847137205639E+03    0.31312E-03   -0.72891E-04  4616   0.998E-02    0.171E-02
DAV:   6    -0.847137221747E+03   -0.16108E-04   -0.19514E-04  3768   0.201E-02    0.185E-02
DAV:   7    -0.847137227133E+03   -0.53853E-05   -0.42744E-05  3928   0.768E-03    0.180E-02
DAV:   8    -0.847137223391E+03    0.37415E-05   -0.71507E-06  2696   0.514E-03    0.149E-02
DAV:   9    -0.847137223967E+03   -0.57559E-06   -0.32624E-06  2600   0.217E-03
  12 F= -.84713722E+03 E0= -.84710870E+03  d E =-.981736E-03
 BRION: g(F)=  0.107E-02 g(S)=  0.000E+00 retain N=  3 mean eig= 1.05
 eig:   0.000  2.242  0.906
 bond charge predicted
       N       E                     dE             d eps       ncg     rms          rms(c)
DAV:   1    -0.847138332389E+03   -0.11090E-02   -0.15129E-02  3264   0.146E-01    0.483E-02
DAV:   2    -0.847142329543E+03   -0.39972E-02   -0.14049E-02  4792   0.160E-01    0.316E-01
DAV:   3    -0.847138349218E+03    0.39803E-02   -0.14066E-02  4184   0.154E-01    0.371E-02
DAV:   4    -0.847138390401E+03   -0.41183E-04   -0.41928E-04  3808   0.303E-02    0.301E-02
DAV:   5    -0.847138384458E+03    0.59429E-05   -0.13125E-04  4072   0.227E-02    0.213E-02
DAV:   6    -0.847138385035E+03   -0.57725E-06   -0.51960E-05  3784   0.211E-02    0.161E-02
DAV:   7    -0.847138381961E+03    0.30744E-05   -0.51665E-05  4152   0.218E-02    0.834E-03
DAV:   8    -0.847138379235E+03    0.27260E-05   -0.28938E-05  4096   0.143E-02    0.445E-03
DAV:   9    -0.847138379128E+03    0.10691E-06   -0.11649E-05  3848   0.659E-03    0.335E-03
DAV:  10    -0.847138379615E+03   -0.48686E-06   -0.37880E-06  2416   0.263E-03
  13 F= -.84713838E+03 E0= -.84710986E+03  d E =-.115565E-02
 BRION: g(F)=  0.103E-02 g(S)=  0.000E+00 retain N=  4 mean eig= 1.34
 eig:   0.000  2.625  1.358  1.358
 bond charge predicted
       N       E                     dE             d eps       ncg     rms          rms(c)
DAV:   1    -0.847139791822E+03   -0.14127E-02   -0.33643E-02  3248   0.218E-01    0.724E-02
DAV:   2    -0.847139924210E+03   -0.13239E-03   -0.17957E-03  4080   0.549E-02    0.490E-02
DAV:   3    -0.847139945240E+03   -0.21030E-04   -0.26800E-04  4224   0.484E-02    0.356E-02
DAV:   4    -0.847140645169E+03   -0.69993E-03   -0.44667E-03  4544   0.896E-02    0.137E-01
DAV:   5    -0.847139980187E+03    0.66498E-03   -0.65400E-03  4352   0.736E-02    0.423E-02
DAV:   6    -0.847139904871E+03    0.75317E-04   -0.34766E-04  4672   0.441E-02    0.154E-02
DAV:   7    -0.847139914928E+03   -0.10057E-04   -0.92091E-05  4152   0.253E-02    0.141E-02
DAV:   8    -0.847139908644E+03    0.62838E-05   -0.56559E-05  3968   0.147E-02    0.569E-03
DAV:   9    -0.847139908722E+03   -0.78027E-07   -0.12856E-05  4120   0.625E-03    0.716E-03
DAV:  10    -0.847139909387E+03   -0.66563E-06   -0.59187E-06  2960   0.284E-03
  14 F= -.84713991E+03 E0= -.84711139E+03  d E =-.152977E-02
 BRION: g(F)=  0.102E-02 g(S)=  0.000E+00 retain N=  5 mean eig= 1.65
 eig:   0.000  2.727  2.232  2.232  1.051
 bond charge predicted
       N       E                     dE             d eps       ncg     rms          rms(c)
DAV:   1    -0.847141133683E+03   -0.12250E-02   -0.31412E-02  3232   0.210E-01    0.741E-02
DAV:   2    -0.847141931200E+03   -0.79752E-03   -0.53269E-03  4056   0.861E-02    0.152E-01
DAV:   3    -0.847141713402E+03    0.21780E-03   -0.24352E-02  4056   0.121E-01    0.122E-01
DAV:   4    -0.847141270412E+03    0.44299E-03   -0.47048E-03  4264   0.852E-02    0.354E-02
DAV:   5    -0.847141260052E+03    0.10361E-04   -0.41645E-04  4412   0.766E-02    0.315E-02
DAV:   6    -0.847141214630E+03    0.45421E-04   -0.25390E-04  4480   0.460E-02    0.173E-02
DAV:   7    -0.847141219249E+03   -0.46185E-05   -0.11773E-04  3888   0.179E-02    0.103E-02
DAV:   8    -0.847141219834E+03   -0.58571E-06   -0.37776E-05  3848   0.103E-02    0.839E-03
DAV:   9    -0.847141220030E+03   -0.19531E-06   -0.71408E-06  3240   0.424E-03
  15 F= -.84714122E+03 E0= -.84711271E+03  d E =-.131064E-02
 BRION: g(F)=  0.112E-02 g(S)=  0.000E+00 retain N=  6 mean eig= 1.86
 eig:   0.000  3.052  2.820  2.820  1.242  1.242
 bond charge predicted
       N       E                     dE             d eps       ncg     rms          rms(c)
DAV:   1    -0.847142083707E+03   -0.86387E-03   -0.14614E-02  3232   0.141E-01    0.552E-02
DAV:   2    -0.847142537297E+03   -0.45359E-03   -0.34719E-03  3968   0.631E-02    0.116E-01
DAV:   3    -0.847142571654E+03   -0.34357E-04   -0.18559E-02  4112   0.104E-01    0.115E-01
DAV:   4    -0.847142101630E+03    0.47002E-03   -0.34257E-03  4168   0.654E-02    0.233E-02
DAV:   5    -0.847142107201E+03   -0.55709E-05   -0.14832E-04  4528   0.421E-02    0.222E-02
DAV:   6    -0.847142093089E+03    0.14112E-04   -0.13826E-04  4360   0.294E-02    0.142E-02
DAV:   7    -0.847142094175E+03   -0.10862E-05   -0.45234E-05  3712   0.110E-02    0.942E-03
DAV:   8    -0.847142094593E+03   -0.41794E-06   -0.14082E-05  3824   0.577E-03    0.677E-03
DAV:   9    -0.847142094351E+03    0.24273E-06   -0.43508E-06  3024   0.680E-03
  16 F= -.84714209E+03 E0= -.84711359E+03  d E =-.874321E-03
 BRION: g(F)=  0.127E-02 g(S)=  0.000E+00 retain N=  7 mean eig= 1.83
 eig:   0.000  3.274  3.142  3.142  1.212  1.212  0.794
 bond charge predicted
       N       E                     dE             d eps       ncg     rms          rms(c)
DAV:   1    -0.847142355711E+03   -0.26112E-03   -0.11284E-03  3256   0.383E-02    0.178E-02
DAV:   2    -0.847142451160E+03   -0.95448E-04   -0.91985E-04  4392   0.251E-02    0.521E-02
DAV:   3    -0.847142390886E+03    0.60274E-04   -0.25729E-03  4200   0.390E-02    0.331E-02
DAV:   4    -0.847142352047E+03    0.38840E-04   -0.38645E-04  4332   0.210E-02    0.596E-03
DAV:   5    -0.847142352089E+03   -0.42455E-07   -0.15516E-05  4224   0.138E-02    0.667E-03
DAV:   6    -0.847142351600E+03    0.48948E-06   -0.99000E-06  3848   0.604E-03
  17 F= -.84714235E+03 E0= -.84711384E+03  d E =-.257249E-03
 BRION: g(F)=  0.131E-02 g(S)=  0.000E+00 retain N=  8 mean eig= 1.62
 eig:   3.406  3.144  3.144  0.000  0.039  1.208  1.208  0.794
 bond charge predicted
       N       E                     dE             d eps       ncg     rms          rms(c)
DAV:   1    -0.847142100313E+03    0.25178E-03   -0.12735E-03  3256   0.392E-02    0.228E-02
DAV:   2    -0.847142095611E+03    0.47022E-05   -0.12188E-04  3888   0.136E-02    0.153E-02
DAV:   3    -0.847142726265E+03   -0.63065E-03   -0.43920E-03  4688   0.657E-02    0.127E-01
DAV:   4    -0.847142090323E+03    0.63594E-03   -0.33087E-03  3656   0.591E-02    0.683E-03
DAV:   5    -0.847142091091E+03   -0.76727E-06   -0.14070E-05  3488   0.122E-02    0.577E-03
DAV:   6    -0.847142090341E+03    0.75001E-06   -0.12822E-05  4040   0.866E-03    0.474E-03
DAV:   7    -0.847142090637E+03   -0.29604E-06   -0.36798E-06  2704   0.284E-03
  18 F= -.84714209E+03 E0= -.84711358E+03  d E =0.260963E-03
 BRION: g(F)=  0.127E-02 g(S)=  0.000E+00 retain N=  9 mean eig= 1.78
 eig:   0.000  2.214  2.323  2.323  3.037  3.037  1.153  1.153  0.738
 bond charge predicted
       N       E                     dE             d eps       ncg     rms          rms(c)
DAV:   1    -0.847141925442E+03    0.16490E-03   -0.68688E-03  3248   0.911E-02    0.531E-02
DAV:   2    -0.847141873112E+03    0.52330E-04   -0.42547E-04  3776   0.251E-02    0.232E-02
DAV:   3    -0.847143244855E+03   -0.13717E-02   -0.66411E-03  4736   0.914E-02    0.187E-01
DAV:   4    -0.847141870933E+03    0.13739E-02   -0.65562E-03  4464   0.901E-02    0.200E-02
DAV:   5    -0.847141867049E+03    0.38838E-05   -0.12760E-04  3936   0.122E-02    0.141E-02
DAV:   6    -0.847141865640E+03    0.14085E-05   -0.27009E-05  3688   0.694E-03    0.856E-03
DAV:   7    -0.847141865707E+03   -0.66189E-07   -0.54441E-06  3200   0.298E-03
  19 F= -.84714187E+03 E0= -.84711336E+03  d E =0.224930E-03
 BRION: g(F)=  0.123E-02 g(S)=  0.000E+00 retain N= 10 mean eig= 2.11
 eig:   4.004  4.004  3.078  2.862  0.000  2.198  2.198  1.085  1.085  0.580
 bond charge predicted
       N       E                     dE             d eps       ncg     rms          rms(c)
DAV:   1    -0.847141919707E+03   -0.54066E-04   -0.12497E-02  3256   0.125E-01    0.705E-02
DAV:   2    -0.847141823710E+03    0.95996E-04   -0.70714E-04  3808   0.342E-02    0.303E-02
DAV:   3    -0.847143228360E+03   -0.14046E-02   -0.68901E-03  4640   0.955E-02    0.189E-01
DAV:   4    -0.847141828231E+03    0.14001E-02   -0.75928E-03  4456   0.927E-02    0.261E-02
DAV:   5    -0.847141823028E+03    0.52031E-05   -0.20499E-04  4296   0.248E-02    0.203E-02
DAV:   6    -0.847141816531E+03    0.64965E-05   -0.80965E-05  3952   0.176E-02    0.117E-02
DAV:   7    -0.847141817771E+03   -0.12397E-05   -0.18212E-05  3768   0.643E-03    0.849E-03
DAV:   8    -0.847141817821E+03   -0.50379E-07   -0.51124E-06  3136   0.467E-03
  20 F= -.84714182E+03 E0= -.84711331E+03  d E =0.478851E-04
 BRION: g(F)=  0.123E-02 g(S)=  0.000E+00 retain N= 11 mean eig= 2.28
 eig:   5.237  5.237  2.958  2.958  0.000  2.329  2.329  1.247  1.106  1.106
 bond charge predicted
       N       E                     dE             d eps       ncg     rms          rms(c)
DAV:   1    -0.847142133610E+03   -0.31584E-03   -0.15447E-02  3264   0.147E-01    0.579E-02
DAV:   2    -0.847142165654E+03   -0.32044E-04   -0.82977E-04  3784   0.397E-02    0.308E-02
DAV:   3    -0.847142253078E+03   -0.87424E-04   -0.84104E-04  4272   0.250E-02    0.539E-02
DAV:   4    -0.847142209474E+03    0.43604E-04   -0.23826E-03  4152   0.381E-02    0.408E-02
DAV:   5    -0.847142176845E+03    0.32629E-04   -0.60824E-04  4072   0.278E-02    0.214E-02
DAV:   6    -0.847142162328E+03    0.14517E-04   -0.85447E-05  4240   0.208E-02    0.878E-03
DAV:   7    -0.847142163541E+03   -0.12135E-05   -0.29597E-05  4008   0.116E-02    0.711E-03
DAV:   8    -0.847142162993E+03    0.54867E-06   -0.94587E-06  3936   0.759E-03
  21 F= -.84714216E+03 E0= -.84711366E+03  d E =-.345171E-03
 BRION: g(F)=  0.134E-02 g(S)=  0.000E+00 retain N= 12 mean eig= 2.31
 eig:   6.133  6.133  3.059  3.059  0.000  2.300  2.300  1.246  0.716  0.716
 bond charge predicted
       N       E                     dE             d eps       ncg     rms          rms(c)
[...]
 WARNING: Sub-Space-Matrix is not hermitian in DAV            4
 -6.148449878016068E-005
 WARNING: Sub-Space-Matrix is not hermitian in DAV            5
 -1.848207383393351E-005
 WARNING: Sub-Space-Matrix is not hermitian in DAV            6
 -9.810355187726007E-005
 WARNING: Sub-Space-Matrix is not hermitian in DAV            8
 -1.034389272445364E-004
 WARNING: Sub-Space-Matrix is not hermitian in DAV            1
  1.721749523294782E-005
 WARNING: Sub-Space-Matrix is not hermitian in DAV            1
  1.721749523294782E-005
 WARNING: Sub-Space-Matrix is not hermitian in DAV            1
  1.721749523294782E-005
 WARNING: Sub-Space-Matrix is not hermitian in DAV            1
 WARNING: Sub-Space-Matrix is not hermitian in DAV            1
  1.721749523294782E-005
 WARNING: Sub-Space-Matrix is not hermitian in DAV            1
  1.721749523294782E-005
 WARNING: Sub-Space-Matrix is not hermitian in DAV            1
  1.721749523294782E-005
 WARNING: Sub-Space-Matrix is not hermitian in DAV            1
  1.721749523294782E-005
 WARNING: Sub-Space-Matrix is not hermitian in DAV            1
  1.721749523294782E-005
 WARNING: Sub-Space-Matrix is not hermitian in DAV            1
  1.721749523294782E-005
 WARNING: Sub-Space-Matrix is not hermitian in DAV            1
  1.721749523294782E-005
 WARNING: Sub-Space-Matrix is not hermitian in DAV            1
  1.721749523294782E-005
 WARNING: Sub-Space-Matrix is not hermitian in DAV            1
  1.721749523294782E-005
 WARNING: Sub-Space-Matrix is not hermitian in DAV            1
  1.721749523294782E-005
 WARNING: Sub-Space-Matrix is not hermitian in DAV            1
  1.721749523294782E-005
 WARNING: Sub-Space-Matrix is not hermitian in DAV            1
  1.721749523294782E-005
 WARNING: Sub-Space-Matrix is not hermitian in DAV            1
  1.721749523294782E-005
 WARNING: Sub-Space-Matrix is not hermitian in DAV            1
  1.721749523294782E-005
 WARNING: Sub-Space-Matrix is not hermitian in DAV            1
  1.721749523294782E-005
 WARNING: Sub-Space-Matrix is not hermitian in DAV            1
  1.721749523294782E-005
 WARNING: Sub-Space-Matrix is not hermitian in DAV            1
  1.721749523294782E-005
 WARNING: Sub-Space-Matrix is not hermitian in DAV            1
  1.721749523294782E-005
 WARNING: Sub-Space-Matrix is not hermitian in DAV            1
  1.721749523294782E-005
 WARNING: Sub-Space-Matrix is not hermitian in DAV            1
  1.721749523294782E-005
 WARNING: Sub-Space-Matrix is not hermitian in DAV            1
  1.721749523294782E-005
 WARNING: Sub-Space-Matrix is not hermitian in DAV            1
  1.721749523294782E-005
 WARNING: Sub-Space-Matrix is not hermitian in DAV            1
  1.721749523294782E-005
 WARNING: Sub-Space-Matrix is not hermitian in DAV            1
  1.721749523294782E-005
 WARNING: Sub-Space-Matrix is not hermitian in DAV            1
  1.721749523294782E-005
 WARNING: Sub-Space-Matrix is not hermitian in DAV            1
  1.721749523294782E-005
 WARNING: Sub-Space-Matrix is not hermitian in DAV            1
  1.721749523294782E-005
 WARNING: Sub-Space-Matrix is not hermitian in DAV            1
  1.721749523294782E-005
 WARNING: Sub-Space-Matrix is not hermitian in DAV            1
  1.721749523294782E-005
 WARNING: Sub-Space-Matrix is not hermitian in DAV            1
  1.721749523294782E-005
 WARNING: Sub-Space-Matrix is not hermitian in DAV            1
  1.721749523294782E-005
 WARNING: Sub-Space-Matrix is not hermitian in DAV            1
  1.721749523294782E-005
  1.721749523294782E-005
 WARNING: Sub-Space-Matrix is not hermitian in DAV            1
 -1.038344745550544E-005
 WARNING: Sub-Space-Matrix is not hermitian in DAV            2
 -1.168466313298256E-005
 WARNING: Sub-Space-Matrix is not hermitian in DAV            1
 -1.038344745550544E-005
 WARNING: Sub-Space-Matrix is not hermitian in DAV            2
 -1.168466313298256E-005
 WARNING: Sub-Space-Matrix is not hermitian in DAV            1
 -1.038344745550544E-005
 WARNING: Sub-Space-Matrix is not hermitian in DAV            2
 -1.168466313298256E-005
 WARNING: Sub-Space-Matrix is not hermitian in DAV            1
 -1.038344745550544E-005
 WARNING: Sub-Space-Matrix is not hermitian in DAV            2
 -1.168466313298256E-005
 WARNING: Sub-Space-Matrix is not hermitian in DAV            1
 -1.038344745550544E-005
 WARNING: Sub-Space-Matrix is not hermitian in DAV            2
 -1.168466313298256E-005
 WARNING: Sub-Space-Matrix is not hermitian in DAV            1
 -1.038344745550544E-005
 WARNING: Sub-Space-Matrix is not hermitian in DAV            2
 -1.168466313298256E-005
 WARNING: Sub-Space-Matrix is not hermitian in DAV            1
 -1.038344745550544E-005
 WARNING: Sub-Space-Matrix is not hermitian in DAV            2
 -1.168466313298256E-005
 WARNING: Sub-Space-Matrix is not hermitian in DAV            1
 WARNING: Sub-Space-Matrix is not hermitian in DAV            1
 -1.038344745550544E-005
 WARNING: Sub-Space-Matrix is not hermitian in DAV            2
 -1.168466313298256E-005
 WARNING: Sub-Space-Matrix is not hermitian in DAV            1
 -1.038344745550544E-005
 WARNING: Sub-Space-Matrix is not hermitian in DAV            2
 -1.168466313298256E-005
 WARNING: Sub-Space-Matrix is not hermitian in DAV            1
 -1.038344745550544E-005
 WARNING: Sub-Space-Matrix is not hermitian in DAV            2
 -1.168466313298256E-005
 WARNING: Sub-Space-Matrix is not hermitian in DAV            1
 -1.038344745550544E-005
 WARNING: Sub-Space-Matrix is not hermitian in DAV            2
 -1.168466313298256E-005
 WARNING: Sub-Space-Matrix is not hermitian in DAV            1
 -1.038344745550544E-005
 WARNING: Sub-Space-Matrix is not hermitian in DAV            2
 -1.168466313298256E-005
 WARNING: Sub-Space-Matrix is not hermitian in DAV            1
 -1.038344745550544E-005
 WARNING: Sub-Space-Matrix is not hermitian in DAV            2
 -1.168466313298256E-005
 WARNING: Sub-Space-Matrix is not hermitian in DAV            1
 -1.038344745550544E-005
 WARNING: Sub-Space-Matrix is not hermitian in DAV            2
 -1.168466313298256E-005
 WARNING: Sub-Space-Matrix is not hermitian in DAV            1
 -1.038344745550544E-005
 WARNING: Sub-Space-Matrix is not hermitian in DAV            2
 -1.168466313298256E-005
 WARNING: Sub-Space-Matrix is not hermitian in DAV            1
 -1.038344745550544E-005
 WARNING: Sub-Space-Matrix is not hermitian in DAV            2
 -1.168466313298256E-005
 WARNING: Sub-Space-Matrix is not hermitian in DAV            1
 -1.038344745550544E-005
 WARNING: Sub-Space-Matrix is not hermitian in DAV            2
 -1.168466313298256E-005
 WARNING: Sub-Space-Matrix is not hermitian in DAV            1
 -1.038344745550544E-005
 WARNING: Sub-Space-Matrix is not hermitian in DAV            2
 -1.168466313298256E-005
 WARNING: Sub-Space-Matrix is not hermitian in DAV            1
 -1.038344745550544E-005
 WARNING: Sub-Space-Matrix is not hermitian in DAV            2
 -1.168466313298256E-005
 WARNING: Sub-Space-Matrix is not hermitian in DAV            1
 -1.038344745550544E-005
 WARNING: Sub-Space-Matrix is not hermitian in DAV            2
 -1.168466313298256E-005
 WARNING: Sub-Space-Matrix is not hermitian in DAV            1
 -1.038344745550544E-005
 WARNING: Sub-Space-Matrix is not hermitian in DAV            2
 -1.168466313298256E-005
 WARNING: Sub-Space-Matrix is not hermitian in DAV            1
 -1.038344745550544E-005
 WARNING: Sub-Space-Matrix is not hermitian in DAV            2
 -1.168466313298256E-005
 WARNING: Sub-Space-Matrix is not hermitian in DAV            1
 -1.038344745550544E-005
 WARNING: Sub-Space-Matrix is not hermitian in DAV            2
 -1.168466313298256E-005
 WARNING: Sub-Space-Matrix is not hermitian in DAV            1
 -1.038344745550544E-005
 WARNING: Sub-Space-Matrix is not hermitian in DAV            2
 -1.168466313298256E-005
 WARNING: Sub-Space-Matrix is not hermitian in DAV            1
 -1.038344745550544E-005
 WARNING: Sub-Space-Matrix is not hermitian in DAV            2
 -1.168466313298256E-005
 WARNING: Sub-Space-Matrix is not hermitian in DAV            1
 -1.038344745550544E-005
 WARNING: Sub-Space-Matrix is not hermitian in DAV            2
 -1.168466313298256E-005
 WARNING: Sub-Space-Matrix is not hermitian in DAV            1
 -1.038344745550544E-005
 WARNING: Sub-Space-Matrix is not hermitian in DAV            2
 -1.168466313298256E-005
 WARNING: Sub-Space-Matrix is not hermitian in DAV            1
 -1.038344745550544E-005
 WARNING: Sub-Space-Matrix is not hermitian in DAV            2
 -1.168466313298256E-005
 WARNING: Sub-Space-Matrix is not hermitian in DAV            1
 -1.038344745550544E-005
 WARNING: Sub-Space-Matrix is not hermitian in DAV            2
 -1.168466313298256E-005
 WARNING: Sub-Space-Matrix is not hermitian in DAV            1
 -1.038344745550544E-005
 WARNING: Sub-Space-Matrix is not hermitian in DAV            2
 -1.168466313298256E-005
 WARNING: Sub-Space-Matrix is not hermitian in DAV            1
 -1.038344745550544E-005
 WARNING: Sub-Space-Matrix is not hermitian in DAV            2
 -1.168466313298256E-005
 WARNING: Sub-Space-Matrix is not hermitian in DAV            1
 -1.038344745550544E-005
 WARNING: Sub-Space-Matrix is not hermitian in DAV            2
 -1.168466313298256E-005
 WARNING: Sub-Space-Matrix is not hermitian in DAV            1
 -1.038344745550544E-005
 WARNING: Sub-Space-Matrix is not hermitian in DAV            2
 -1.168466313298256E-005
 WARNING: Sub-Space-Matrix is not hermitian in DAV            1
 -1.038344745550544E-005
 WARNING: Sub-Space-Matrix is not hermitian in DAV            2
 -1.168466313298256E-005
 WARNING: Sub-Space-Matrix is not hermitian in DAV            1
 -1.038344745550544E-005
 WARNING: Sub-Space-Matrix is not hermitian in DAV            2
 -1.168466313298256E-005
 -1.038344745550544E-005
 WARNING: Sub-Space-Matrix is not hermitian in DAV            2
 -1.168466313298256E-005
 WARNING: Sub-Space-Matrix is not hermitian in DAV            3
 -1.611052082918986E-005
 WARNING: Sub-Space-Matrix is not hermitian in DAV            3
 -1.611052082918986E-005
 WARNING: Sub-Space-Matrix is not hermitian in DAV            3
 -1.611052082918986E-005
 WARNING: Sub-Space-Matrix is not hermitian in DAV            3
 -1.611052082918986E-005
 WARNING: Sub-Space-Matrix is not hermitian in DAV            3
 -1.611052082918986E-005
 WARNING: Sub-Space-Matrix is not hermitian in DAV            3
 WARNING: Sub-Space-Matrix is not hermitian in DAV            3
 -1.611052082918986E-005
 WARNING: Sub-Space-Matrix is not hermitian in DAV            3
 -1.611052082918986E-005
 WARNING: Sub-Space-Matrix is not hermitian in DAV            3
 -1.611052082918986E-005
 WARNING: Sub-Space-Matrix is not hermitian in DAV            3
 -1.611052082918986E-005
 WARNING: Sub-Space-Matrix is not hermitian in DAV            3
 -1.611052082918986E-005
 WARNING: Sub-Space-Matrix is not hermitian in DAV            3
 -1.611052082918986E-005
 WARNING: Sub-Space-Matrix is not hermitian in DAV            3
 -1.611052082918986E-005
 WARNING: Sub-Space-Matrix is not hermitian in DAV            3
 -1.611052082918986E-005
 WARNING: Sub-Space-Matrix is not hermitian in DAV            3
 -1.611052082918986E-005
 WARNING: Sub-Space-Matrix is not hermitian in DAV            3
 -1.611052082918986E-005
 WARNING: Sub-Space-Matrix is not hermitian in DAV            3
 -1.611052082918986E-005
 WARNING: Sub-Space-Matrix is not hermitian in DAV            3
 -1.611052082918986E-005
 WARNING: Sub-Space-Matrix is not hermitian in DAV            3
 -1.611052082918986E-005
 WARNING: Sub-Space-Matrix is not hermitian in DAV            3
 -1.611052082918986E-005
 WARNING: Sub-Space-Matrix is not hermitian in DAV            3
 -1.611052082918986E-005
 WARNING: Sub-Space-Matrix is not hermitian in DAV            3
 -1.611052082918986E-005
 WARNING: Sub-Space-Matrix is not hermitian in DAV            3
 -1.611052082918986E-005
 WARNING: Sub-Space-Matrix is not hermitian in DAV            3
 -1.611052082918986E-005
 WARNING: Sub-Space-Matrix is not hermitian in DAV            3
 -1.611052082918986E-005
 WARNING: Sub-Space-Matrix is not hermitian in DAV            3
 -1.611052082918986E-005
 WARNING: Sub-Space-Matrix is not hermitian in DAV            3
 -1.611052082918986E-005
 WARNING: Sub-Space-Matrix is not hermitian in DAV            3
 -1.611052082918986E-005
 WARNING: Sub-Space-Matrix is not hermitian in DAV            3
 -1.611052082918986E-005
 WARNING: Sub-Space-Matrix is not hermitian in DAV            3
 -1.611052082918986E-005
 WARNING: Sub-Space-Matrix is not hermitian in DAV            3
 -1.611052082918986E-005
 WARNING: Sub-Space-Matrix is not hermitian in DAV            3
 -1.611052082918986E-005
 WARNING: Sub-Space-Matrix is not hermitian in DAV            3
 -1.611052082918986E-005
 WARNING: Sub-Space-Matrix is not hermitian in DAV            3
 -1.611052082918986E-005
 WARNING: Sub-Space-Matrix is not hermitian in DAV            3
 -1.611052082918986E-005
 WARNING: Sub-Space-Matrix is not hermitian in DAV            3
 -1.611052082918986E-005
 -1.611052082918986E-005
 WARNING: Sub-Space-Matrix is not hermitian in DAV            4
  5.136284858345796E-005
 WARNING: Sub-Space-Matrix is not hermitian in DAV            4
  5.136284858345796E-005
 WARNING: Sub-Space-Matrix is not hermitian in DAV            4
  5.136284858345796E-005
 WARNING: Sub-Space-Matrix is not hermitian in DAV            4
  5.136284858345796E-005
 WARNING: Sub-Space-Matrix is not hermitian in DAV            4
  5.136284858345796E-005
 WARNING: Sub-Space-Matrix is not hermitian in DAV            4
  5.136284858345796E-005
 WARNING: Sub-Space-Matrix is not hermitian in DAV            4
  5.136284858345796E-005
 WARNING: Sub-Space-Matrix is not hermitian in DAV            4
  5.136284858345796E-005
 WARNING: Sub-Space-Matrix is not hermitian in DAV            4
  5.136284858345796E-005
 WARNING: Sub-Space-Matrix is not hermitian in DAV            4
 WARNING: Sub-Space-Matrix is not hermitian in DAV            4
  5.136284858345796E-005
 WARNING: Sub-Space-Matrix is not hermitian in DAV            4
  5.136284858345796E-005
 WARNING: Sub-Space-Matrix is not hermitian in DAV            4
  5.136284858345796E-005
 WARNING: Sub-Space-Matrix is not hermitian in DAV            4
  5.136284858345796E-005
 WARNING: Sub-Space-Matrix is not hermitian in DAV            4
  5.136284858345796E-005
 WARNING: Sub-Space-Matrix is not hermitian in DAV            4
  5.136284858345796E-005
 WARNING: Sub-Space-Matrix is not hermitian in DAV            4
  5.136284858345796E-005
 WARNING: Sub-Space-Matrix is not hermitian in DAV            4
  5.136284858345796E-005
 WARNING: Sub-Space-Matrix is not hermitian in DAV            4
  5.136284858345796E-005
 WARNING: Sub-Space-Matrix is not hermitian in DAV            4
  5.136284858345796E-005
 WARNING: Sub-Space-Matrix is not hermitian in DAV            4
  5.136284858345796E-005
 WARNING: Sub-Space-Matrix is not hermitian in DAV            4
  5.136284858345796E-005
 WARNING: Sub-Space-Matrix is not hermitian in DAV            4
  5.136284858345796E-005
 WARNING: Sub-Space-Matrix is not hermitian in DAV            4
  5.136284858345796E-005
 WARNING: Sub-Space-Matrix is not hermitian in DAV            4
  5.136284858345796E-005
 WARNING: Sub-Space-Matrix is not hermitian in DAV            4
  5.136284858345796E-005
 WARNING: Sub-Space-Matrix is not hermitian in DAV            4
  5.136284858345796E-005
 WARNING: Sub-Space-Matrix is not hermitian in DAV            4
  5.136284858345796E-005
 WARNING: Sub-Space-Matrix is not hermitian in DAV            4
  5.136284858345796E-005
 WARNING: Sub-Space-Matrix is not hermitian in DAV            4
  5.136284858345796E-005
 WARNING: Sub-Space-Matrix is not hermitian in DAV            4
  5.136284858345796E-005
 WARNING: Sub-Space-Matrix is not hermitian in DAV            4
  5.136284858345796E-005
 WARNING: Sub-Space-Matrix is not hermitian in DAV            4
  5.136284858345796E-005
 WARNING: Sub-Space-Matrix is not hermitian in DAV            4
  5.136284858345796E-005
 WARNING: Sub-Space-Matrix is not hermitian in DAV            4
  5.136284858345796E-005
 WARNING: Sub-Space-Matrix is not hermitian in DAV            4
  5.136284858345796E-005
  5.136284858345796E-005
DAV: 100    -0.101133276620E+10    0.11539E+10   -0.25550E+09  4856   0.121E+03
 -----------------------------------------------------------------------------
|                                                                             |
|           W    W    AA    RRRRR   N    N  II  N    N   GGGG   !!!           |
|           W    W   A  A   R    R  NN   N  II  NN   N  G    G  !!!           |
|           W    W  A    A  R    R  N N  N  II  N N  N  G       !!!           |
|           W WW W  AAAAAA  RRRRR   N  N N  II  N  N N  G  GGG   !            |
|           WW  WW  A    A  R   R   N   NN  II  N   NN  G    G                |
|           W    W  A    A  R    R  N    N  II  N    N   GGGG   !!!           |
|                                                                             |
|     The electronic self-consistency was not achieved in the given           |
|     number of steps (NELM). The forces and other quantities evaluated       |
|     might not be reliable so examine the results carefully. If you find     |
|     spurious results, we suggest increasing NELM, if you were close to      |
|     convergence or switching to a different ALGO or adjusting the           |
|     density mixing parameters otherwise.                                    |
|                                                                             |
 -----------------------------------------------------------------------------

BRMIX: very serious problems
 the old and the new charge density differ
 old charge density:   392.79488 new  397.69286
  35 F= -.10113328E+10 E0= -.10113328E+10  d E =-.101133E+10
 BRION: g(F)=  0.249E+16 g(S)=  0.000E+00 retain N=  4 mean eig= 0.16
 eig:   0.000  0.293  0.293  0.042
 bond charge predicted
 -----------------------------------------------------------------------------
|                                                                             |
|     EEEEEEE  RRRRRR   RRRRRR   OOOOOOO  RRRRRR      ###     ###     ###     |
|     E        R     R  R     R  O     O  R     R     ###     ###     ###     |
|     E        R     R  R     R  O     O  R     R     ###     ###     ###     |
|     EEEEE    RRRRRR   RRRRRR   O     O  RRRRRR       #       #       #      |
|     E        R   R    R   R    O     O  R   R                               |
|     E        R    R   R    R   O     O  R    R      ###     ###     ###     |
|     EEEEEEE  R     R  R     R  OOOOOOO  R     R     ###     ###     ###     |
|                                                                             |
|     Orbital orthonormalization failed in the inversion of matrix            |
|     LAPACK: Routine ZPOTRF failed! kpoint: 2 spin: 1                        |
|                                                                             |
|     Possible solutions for this issue are:                                  |
|     - Please check whether the atoms are too close to each other.           |
|     - Decreasing POTIM might help during relaxations or MDs.                |
|     - Deleting CHGCAR or WAVECAR if incompatible with the structure.        |
|     - Try calculating without symmetrizing (ISYM = 0 or ISYM = -1).         |
|     - As last resort: using a different PAW for some of the atoms.          |
|                                                                             |
|       ---->  I REFUSE TO CONTINUE WITH THIS SICK JOB ... BYE!!! <----       |
|                                                                             |
 -----------------------------------------------------------------------------

Tue Oct  1 02:21:02 EEST 2024
