# energy dos
-1.724650000000000105e+01 0.000000000000000000e+00
-1.724060000000000059e+01 0.000000000000000000e+00
-1.723470000000000013e+01 0.000000000000000000e+00
-1.722879999999999967e+01 0.000000000000000000e+00
-1.722289999999999921e+01 0.000000000000000000e+00
-1.721699999999999875e+01 0.000000000000000000e+00
-1.721110000000000184e+01 0.000000000000000000e+00
-1.720530000000000115e+01 0.000000000000000000e+00
-1.719940000000000069e+01 0.000000000000000000e+00
-1.719350000000000023e+01 0.000000000000000000e+00
-1.718759999999999977e+01 0.000000000000000000e+00
-1.718169999999999931e+01 0.000000000000000000e+00
-1.717579999999999885e+01 0.000000000000000000e+00
-1.716990000000000194e+01 0.000000000000000000e+00
-1.716400000000000148e+01 0.000000000000000000e+00
-1.715810000000000102e+01 0.000000000000000000e+00
-1.715230000000000032e+01 0.000000000000000000e+00
-1.714639999999999986e+01 0.000000000000000000e+00
-1.714049999999999940e+01 0.000000000000000000e+00
-1.713459999999999894e+01 0.000000000000000000e+00
-1.712869999999999848e+01 0.000000000000000000e+00
-1.712280000000000157e+01 0.000000000000000000e+00
-1.711690000000000111e+01 0.000000000000000000e+00
-1.711100000000000065e+01 0.000000000000000000e+00
-1.710510000000000019e+01 0.000000000000000000e+00
-1.709929999999999950e+01 0.000000000000000000e+00
-1.709339999999999904e+01 0.000000000000000000e+00
-1.708749999999999858e+01 0.000000000000000000e+00
-1.708160000000000167e+01 0.000000000000000000e+00
-1.707570000000000121e+01 0.000000000000000000e+00
-1.706980000000000075e+01 0.000000000000000000e+00
-1.706390000000000029e+01 0.000000000000000000e+00
-1.705799999999999983e+01 0.000000000000000000e+00
-1.705209999999999937e+01 0.000000000000000000e+00
-1.704629999999999868e+01 0.000000000000000000e+00
-1.704040000000000177e+01 0.000000000000000000e+00
-1.703450000000000131e+01 0.000000000000000000e+00
-1.702860000000000085e+01 0.000000000000000000e+00
-1.702270000000000039e+01 0.000000000000000000e+00
-1.701679999999999993e+01 0.000000000000000000e+00
-1.701089999999999947e+01 0.000000000000000000e+00
-1.700499999999999901e+01 0.000000000000000000e+00
-1.699909999999999854e+01 0.000000000000000000e+00
-1.699330000000000140e+01 0.000000000000000000e+00
-1.698740000000000094e+01 0.000000000000000000e+00
-1.698150000000000048e+01 0.000000000000000000e+00
-1.697560000000000002e+01 0.000000000000000000e+00
-1.696969999999999956e+01 0.000000000000000000e+00
-1.696379999999999910e+01 0.000000000000000000e+00
-1.695789999999999864e+01 0.000000000000000000e+00
-1.695200000000000173e+01 0.000000000000000000e+00
-1.694610000000000127e+01 0.000000000000000000e+00
-1.694030000000000058e+01 0.000000000000000000e+00
-1.693440000000000012e+01 0.000000000000000000e+00
-1.692849999999999966e+01 0.000000000000000000e+00
-1.692259999999999920e+01 0.000000000000000000e+00
-1.691669999999999874e+01 0.000000000000000000e+00
-1.691080000000000183e+01 0.000000000000000000e+00
-1.690490000000000137e+01 0.000000000000000000e+00
-1.689900000000000091e+01 0.000000000000000000e+00
-1.689310000000000045e+01 0.000000000000000000e+00
-1.688729999999999976e+01 0.000000000000000000e+00
-1.688139999999999930e+01 0.000000000000000000e+00
-1.687549999999999883e+01 0.000000000000000000e+00
-1.686960000000000193e+01 0.000000000000000000e+00
-1.686370000000000147e+01 0.000000000000000000e+00
-1.685780000000000101e+01 0.000000000000000000e+00
-1.685190000000000055e+01 0.000000000000000000e+00
-1.684600000000000009e+01 0.000000000000000000e+00
-1.684009999999999962e+01 0.000000000000000000e+00
-1.683429999999999893e+01 0.000000000000000000e+00
-1.682839999999999847e+01 0.000000000000000000e+00
-1.682250000000000156e+01 0.000000000000000000e+00
-1.681660000000000110e+01 0.000000000000000000e+00
-1.681070000000000064e+01 0.000000000000000000e+00
-1.680480000000000018e+01 0.000000000000000000e+00
-1.679889999999999972e+01 0.000000000000000000e+00
-1.679299999999999926e+01 0.000000000000000000e+00
-1.678709999999999880e+01 0.000000000000000000e+00
-1.678130000000000166e+01 0.000000000000000000e+00
-1.677540000000000120e+01 0.000000000000000000e+00
-1.676950000000000074e+01 0.000000000000000000e+00
-1.676360000000000028e+01 0.000000000000000000e+00
-1.675769999999999982e+01 0.000000000000000000e+00
-1.675179999999999936e+01 0.000000000000000000e+00
-1.674589999999999890e+01 0.000000000000000000e+00
-1.674000000000000199e+01 0.000000000000000000e+00
-1.673410000000000153e+01 0.000000000000000000e+00
-1.672830000000000084e+01 0.000000000000000000e+00
-1.672240000000000038e+01 0.000000000000000000e+00
-1.671649999999999991e+01 0.000000000000000000e+00
-1.671059999999999945e+01 0.000000000000000000e+00
-1.670469999999999899e+01 0.000000000000000000e+00
-1.669879999999999853e+01 0.000000000000000000e+00
-1.669290000000000163e+01 0.000000000000000000e+00
-1.668700000000000117e+01 0.000000000000000000e+00
-1.668110000000000070e+01 0.000000000000000000e+00
-1.667530000000000001e+01 0.000000000000000000e+00
-1.666939999999999955e+01 0.000000000000000000e+00
-1.666349999999999909e+01 0.000000000000000000e+00
-1.665759999999999863e+01 0.000000000000000000e+00
-1.665170000000000172e+01 0.000000000000000000e+00
-1.664580000000000126e+01 0.000000000000000000e+00
-1.663990000000000080e+01 0.000000000000000000e+00
-1.663400000000000034e+01 0.000000000000000000e+00
-1.662809999999999988e+01 0.000000000000000000e+00
-1.662229999999999919e+01 0.000000000000000000e+00
-1.661639999999999873e+01 0.000000000000000000e+00
-1.661050000000000182e+01 0.000000000000000000e+00
-1.660460000000000136e+01 0.000000000000000000e+00
-1.659870000000000090e+01 0.000000000000000000e+00
-1.659280000000000044e+01 0.000000000000000000e+00
-1.658689999999999998e+01 0.000000000000000000e+00
-1.658099999999999952e+01 0.000000000000000000e+00
-1.657509999999999906e+01 0.000000000000000000e+00
-1.656930000000000192e+01 0.000000000000000000e+00
-1.656340000000000146e+01 0.000000000000000000e+00
-1.655750000000000099e+01 0.000000000000000000e+00
-1.655160000000000053e+01 0.000000000000000000e+00
-1.654570000000000007e+01 0.000000000000000000e+00
-1.653979999999999961e+01 0.000000000000000000e+00
-1.653389999999999915e+01 0.000000000000000000e+00
-1.652799999999999869e+01 0.000000000000000000e+00
-1.652210000000000178e+01 0.000000000000000000e+00
-1.651630000000000109e+01 0.000000000000000000e+00
-1.651040000000000063e+01 0.000000000000000000e+00
-1.650450000000000017e+01 0.000000000000000000e+00
-1.649859999999999971e+01 0.000000000000000000e+00
-1.649269999999999925e+01 0.000000000000000000e+00
-1.648679999999999879e+01 0.000000000000000000e+00
-1.648090000000000188e+01 0.000000000000000000e+00
-1.647500000000000142e+01 0.000000000000000000e+00
-1.646910000000000096e+01 0.000000000000000000e+00
-1.646330000000000027e+01 0.000000000000000000e+00
-1.645739999999999981e+01 0.000000000000000000e+00
-1.645149999999999935e+01 0.000000000000000000e+00
-1.644559999999999889e+01 0.000000000000000000e+00
-1.643970000000000198e+01 0.000000000000000000e+00
-1.643380000000000152e+01 0.000000000000000000e+00
-1.642790000000000106e+01 0.000000000000000000e+00
-1.642200000000000060e+01 0.000000000000000000e+00
-1.641610000000000014e+01 0.000000000000000000e+00
-1.641029999999999944e+01 0.000000000000000000e+00
-1.640439999999999898e+01 0.000000000000000000e+00
-1.639849999999999852e+01 0.000000000000000000e+00
-1.639260000000000161e+01 0.000000000000000000e+00
-1.638670000000000115e+01 0.000000000000000000e+00
-1.638080000000000069e+01 0.000000000000000000e+00
-1.637490000000000023e+01 0.000000000000000000e+00
-1.636899999999999977e+01 0.000000000000000000e+00
-1.636309999999999931e+01 0.000000000000000000e+00
-1.635729999999999862e+01 0.000000000000000000e+00
-1.635140000000000171e+01 0.000000000000000000e+00
-1.634550000000000125e+01 0.000000000000000000e+00
-1.633960000000000079e+01 0.000000000000000000e+00
-1.633370000000000033e+01 0.000000000000000000e+00
-1.632779999999999987e+01 0.000000000000000000e+00
-1.632189999999999941e+01 0.000000000000000000e+00
-1.631599999999999895e+01 0.000000000000000000e+00
-1.631009999999999849e+01 0.000000000000000000e+00
-1.630430000000000135e+01 0.000000000000000000e+00
-1.629840000000000089e+01 0.000000000000000000e+00
-1.629250000000000043e+01 0.000000000000000000e+00
-1.628659999999999997e+01 0.000000000000000000e+00
-1.628069999999999951e+01 0.000000000000000000e+00
-1.627479999999999905e+01 0.000000000000000000e+00
-1.626889999999999858e+01 0.000000000000000000e+00
-1.626300000000000168e+01 0.000000000000000000e+00
-1.625710000000000122e+01 0.000000000000000000e+00
-1.625130000000000052e+01 0.000000000000000000e+00
-1.624540000000000006e+01 0.000000000000000000e+00
-1.623949999999999960e+01 0.000000000000000000e+00
-1.623359999999999914e+01 0.000000000000000000e+00
-1.622769999999999868e+01 0.000000000000000000e+00
-1.622180000000000177e+01 0.000000000000000000e+00
-1.621590000000000131e+01 0.000000000000000000e+00
-1.621000000000000085e+01 0.000000000000000000e+00
-1.620410000000000039e+01 0.000000000000000000e+00
-1.619829999999999970e+01 0.000000000000000000e+00
-1.619239999999999924e+01 0.000000000000000000e+00
-1.618649999999999878e+01 0.000000000000000000e+00
-1.618060000000000187e+01 0.000000000000000000e+00
-1.617470000000000141e+01 0.000000000000000000e+00
-1.616880000000000095e+01 0.000000000000000000e+00
-1.616290000000000049e+01 0.000000000000000000e+00
-1.615700000000000003e+01 0.000000000000000000e+00
-1.615109999999999957e+01 0.000000000000000000e+00
-1.614529999999999887e+01 0.000000000000000000e+00
-1.613940000000000197e+01 0.000000000000000000e+00
-1.613350000000000151e+01 0.000000000000000000e+00
-1.612760000000000105e+01 0.000000000000000000e+00
-1.612170000000000059e+01 0.000000000000000000e+00
-1.611580000000000013e+01 0.000000000000000000e+00
-1.610989999999999966e+01 0.000000000000000000e+00
-1.610399999999999920e+01 0.000000000000000000e+00
-1.609809999999999874e+01 0.000000000000000000e+00
-1.609230000000000160e+01 0.000000000000000000e+00
-1.608640000000000114e+01 0.000000000000000000e+00
-1.608050000000000068e+01 0.000000000000000000e+00
-1.607460000000000022e+01 0.000000000000000000e+00
-1.606869999999999976e+01 0.000000000000000000e+00
-1.606279999999999930e+01 0.000000000000000000e+00
-1.605689999999999884e+01 0.000000000000000000e+00
-1.605100000000000193e+01 0.000000000000000000e+00
-1.604510000000000147e+01 0.000000000000000000e+00
-1.603930000000000078e+01 0.000000000000000000e+00
-1.603340000000000032e+01 0.000000000000000000e+00
-1.602749999999999986e+01 0.000000000000000000e+00
-1.602159999999999940e+01 0.000000000000000000e+00
-1.601569999999999894e+01 0.000000000000000000e+00
-1.600979999999999848e+01 0.000000000000000000e+00
-1.600390000000000157e+01 0.000000000000000000e+00
-1.599800000000000111e+01 0.000000000000000000e+00
-1.599210000000000065e+01 0.000000000000000000e+00
-1.598629999999999995e+01 0.000000000000000000e+00
-1.598039999999999949e+01 0.000000000000000000e+00
-1.597449999999999903e+01 0.000000000000000000e+00
-1.596859999999999857e+01 1.548463472701162216e-09
-1.596270000000000167e+01 4.012901129468189388e-09
-1.595680000000000121e+01 7.881113621868664581e-09
-1.595090000000000074e+01 1.386906721479994519e-08
-1.594500000000000028e+01 2.301066574142595056e-08
-1.593909999999999982e+01 3.677456479139966783e-08
-1.593329999999999913e+01 5.876093574066607850e-08
-1.592739999999999867e+01 9.115539254052988367e-08
-1.592150000000000176e+01 1.382504139469789967e-07
-1.591560000000000130e+01 2.058091926637858346e-07
-1.590970000000000084e+01 3.029905471246416535e-07
-1.590380000000000038e+01 4.390433260250719510e-07
-1.589789999999999992e+01 6.286150160893697576e-07
-1.589199999999999946e+01 8.876039350583945184e-07
-1.588609999999999900e+01 1.238558121112254425e-06
-1.588030000000000186e+01 1.708125840213655095e-06
-1.587440000000000140e+01 2.328721300267096608e-06
-1.586850000000000094e+01 3.139207573342352712e-06
-1.586260000000000048e+01 4.185528205072996160e-06
-1.585670000000000002e+01 5.521261647222500601e-06
-1.585079999999999956e+01 7.209626665901726743e-06
-1.584489999999999910e+01 9.321649300829683532e-06
-1.583899999999999864e+01 1.193752173426916326e-05
-1.583310000000000173e+01 1.514697177484795397e-05
-1.582730000000000103e+01 1.905119699521995585e-05
-1.582140000000000057e+01 2.375959649877809984e-05
-1.581550000000000011e+01 2.939677284000749292e-05
-1.580959999999999965e+01 3.609654251162181584e-05
-1.580369999999999919e+01 4.400907398536651045e-05
-1.579779999999999873e+01 5.330108577269737912e-05
-1.579190000000000182e+01 6.415701987539126590e-05
-1.578600000000000136e+01 7.678461032856893616e-05
-1.578010000000000090e+01 9.141630400880366590e-05
-1.577430000000000021e+01 1.083160163923326929e-04
-1.576839999999999975e+01 1.277831997607479207e-04
-1.576249999999999929e+01 1.501583657364884117e-04
-1.575659999999999883e+01 1.758274707185165562e-04
-1.575070000000000192e+01 2.052319040434075995e-04
-1.574480000000000146e+01 2.388716920282863570e-04
-1.573890000000000100e+01 2.773130817846435709e-04
-1.573300000000000054e+01 3.211952946052592183e-04
-1.572710000000000008e+01 3.712389453612314886e-04
-1.572129999999999939e+01 4.282508646566223170e-04
-1.571539999999999893e+01 4.931339371010361834e-04
-1.570949999999999847e+01 5.668940757295019579e-04
-1.570360000000000156e+01 6.506471041276591519e-04
-1.569770000000000110e+01 7.456315218987789309e-04
-1.569180000000000064e+01 8.532149410501027858e-04
-1.568590000000000018e+01 9.749054887864480341e-04
-1.567999999999999972e+01 1.112363038106403993e-03
-1.567409999999999926e+01 1.267412763592213644e-03
-1.566829999999999856e+01 1.442057234740381057e-03
-1.566240000000000165e+01 1.638490239799584528e-03
-1.565650000000000119e+01 1.859111289108771308e-03
-1.565060000000000073e+01 2.106540678701329574e-03
-1.564470000000000027e+01 2.383636521039205012e-03
-1.563879999999999981e+01 2.693508305759834392e-03
-1.563289999999999935e+01 3.039535395752836211e-03
-1.562699999999999889e+01 3.425382348070580424e-03
-1.562110000000000198e+01 3.855015139029132655e-03
-1.561530000000000129e+01 4.332717203559315056e-03
-1.560940000000000083e+01 4.863106705145166936e-03
-1.560350000000000037e+01 5.451149619319127851e-03
-1.559759999999999991e+01 6.102177056749973072e-03
-1.559169999999999945e+01 6.821900276636061813e-03
-1.558579999999999899e+01 7.616420641958266541e-03
-1.557989999999999853e+01 8.492245716259070112e-03
-1.557400000000000162e+01 9.456301657686714407e-03
-1.556810000000000116e+01 1.051594316546167543e-02
-1.556230000000000047e+01 1.167896060253338988e-02
-1.555640000000000001e+01 1.295359361547708185e-02
-1.555049999999999955e+01 1.434853282007585509e-02
-1.554459999999999908e+01 1.587292587672332195e-02
-1.553869999999999862e+01 1.753637997214736732e-02
-1.553280000000000172e+01 1.934896205927375337e-02
-1.552690000000000126e+01 2.132119570286230420e-02
-1.552100000000000080e+01 2.346406106376825590e-02
-1.551510000000000034e+01 2.578898133822200150e-02
-1.550929999999999964e+01 2.830781636913910423e-02
-1.550339999999999918e+01 3.103284601382928082e-02
-1.549749999999999872e+01 3.397675785376391699e-02
-1.549160000000000181e+01 3.715262430656912640e-02
-1.548570000000000135e+01 4.057388222779756415e-02
-1.547980000000000089e+01 4.425430451240110197e-02
-1.547390000000000043e+01 4.820797224981408780e-02
-1.546799999999999997e+01 5.244924157273322257e-02
-1.546209999999999951e+01 5.699270940134248259e-02
-1.545629999999999882e+01 6.185317072433551416e-02
-1.545040000000000191e+01 6.704558135144403352e-02
-1.544450000000000145e+01 7.258500877929115191e-02
-1.543860000000000099e+01 7.848658617423023842e-02
-1.543270000000000053e+01 8.476546430747369798e-02
-1.542680000000000007e+01 9.143675408093435153e-02
-1.542089999999999961e+01 9.851547240235990210e-02
-1.541499999999999915e+01 1.060164900263596138e-01
-1.540909999999999869e+01 1.139544636722847060e-01
-1.540330000000000155e+01 1.223437883696184697e-01
-1.539740000000000109e+01 1.311985279356884249e-01
-1.539150000000000063e+01 1.405323570989078785e-01
-1.538560000000000016e+01 1.503585046980936701e-01
-1.537969999999999970e+01 1.606896897098880339e-01
-1.537379999999999924e+01 1.715380664974379687e-01
-1.536789999999999878e+01 1.829151659939819985e-01
-1.536200000000000188e+01 1.948318427415278442e-01
-1.535610000000000142e+01 2.072982213231472082e-01
-1.535030000000000072e+01 2.203236503252668232e-01
-1.534440000000000026e+01 2.339166488736483807e-01
-1.533849999999999980e+01 2.480848720623575476e-01
-1.533259999999999934e+01 2.628350651825049344e-01
-1.532669999999999888e+01 2.781730313187324999e-01
-1.532080000000000197e+01 2.941035963324682423e-01
-1.531490000000000151e+01 3.106305861549846226e-01
-1.530900000000000105e+01 3.277567975913688869e-01
-1.530310000000000059e+01 3.454839861909468901e-01
-1.529729999999999990e+01 3.638128489658680187e-01
-1.529139999999999944e+01 3.827430144045625426e-01
-1.528549999999999898e+01 4.022730442183967137e-01
-1.527959999999999852e+01 4.224004327510170742e-01
-1.527370000000000161e+01 4.431216126326227855e-01
-1.526780000000000115e+01 4.644319654150324550e-01
-1.526190000000000069e+01 4.863258439609255412e-01
-1.525600000000000023e+01 5.087965913836718368e-01
-1.525009999999999977e+01 5.318365691641223636e-01
-1.524429999999999907e+01 5.554371875572847728e-01
-1.523839999999999861e+01 5.795889433864785945e-01
-1.523250000000000171e+01 6.042814637671385380e-01
-1.522660000000000124e+01 6.295035434145918041e-01
-1.522070000000000078e+01 6.552432020444119987e-01
-1.521480000000000032e+01 6.814877312731308923e-01
-1.520889999999999986e+01 7.082237540219169514e-01
-1.520299999999999940e+01 7.354372820864070182e-01
-1.519709999999999894e+01 7.631137794730474821e-01
-1.519130000000000180e+01 7.912382276008393944e-01
-1.518540000000000134e+01 8.197951926581081850e-01
-1.517950000000000088e+01 8.487688988883882457e-01
-1.517360000000000042e+01 8.781432952618412058e-01
-1.516769999999999996e+01 9.079021317670046276e-01
-1.516179999999999950e+01 9.380290342895887257e-01
-1.515589999999999904e+01 9.685075790012785957e-01
-1.514999999999999858e+01 9.993213658180695180e-01
-1.514410000000000167e+01 1.030454095616590404e+00
-1.513830000000000098e+01 1.061889642483251572e+00
-1.513240000000000052e+01 1.093612122034413936e+00
-1.512650000000000006e+01 1.125605963173948343e+00
-1.512059999999999960e+01 1.157855973816142470e+00
-1.511469999999999914e+01 1.190347395640551698e+00
-1.510879999999999868e+01 1.223065967937768450e+00
-1.510290000000000177e+01 1.255997971989015083e+00
-1.509700000000000131e+01 1.289130276266344577e+00
-1.509110000000000085e+01 1.322450373205719121e+00
-1.508530000000000015e+01 1.355946401952524694e+00
-1.507939999999999969e+01 1.389607172238560118e+00
-1.507349999999999923e+01 1.423422167919358161e+00
-1.506759999999999877e+01 1.457381546379765247e+00
-1.506170000000000186e+01 1.491476124179256013e+00
-1.505580000000000140e+01 1.525697348910660889e+00
-1.504990000000000094e+01 1.560037265207708357e+00
-1.504400000000000048e+01 1.594488457647285751e+00
-1.503810000000000002e+01 1.629043990110347506e+00
-1.503229999999999933e+01 1.663697329252312063e+00
-1.502639999999999887e+01 1.698442250128453512e+00
-1.502050000000000196e+01 1.733272739748221047e+00
-1.501460000000000150e+01 1.768182877282366672e+00
-1.500870000000000104e+01 1.803166711384829313e+00
-1.500280000000000058e+01 1.838218124403491860e+00
-1.499690000000000012e+01 1.873330685207631685e+00
-1.499099999999999966e+01 1.908497498001238135e+00
-1.498509999999999920e+01 1.943711048318959689e+00
-1.497929999999999851e+01 1.978963031922090332e+00
-1.497340000000000160e+01 2.014244194593580950e+00
-1.496750000000000114e+01 2.049544166154152247e+00
-1.496160000000000068e+01 2.084851290617331543e+00
-1.495570000000000022e+01 2.120152470754292473e+00
-1.494979999999999976e+01 2.155433008991988864e+00
-1.494389999999999930e+01 2.190676459642975971e+00
-1.493799999999999883e+01 2.225864493745619122e+00
-1.493210000000000193e+01 2.260976772301943605e+00
-1.492630000000000123e+01 2.295990839083856816e+00
-1.492040000000000077e+01 2.330882025062897434e+00
-1.491450000000000031e+01 2.365623377062683996e+00
-1.490859999999999985e+01 2.400185602376220917e+00
-1.490269999999999939e+01 2.434537039892890498e+00
-1.489679999999999893e+01 2.468643652213504236e+00
-1.489089999999999847e+01 2.502469043475740840e+00
-1.488500000000000156e+01 2.535974501541184534e+00
-1.487910000000000110e+01 2.569119070822434292e+00
-1.487330000000000041e+01 2.601859642080663004e+00
-1.486739999999999995e+01 2.634151080290032088e+00
-1.486149999999999949e+01 2.665946370641226526e+00
-1.485559999999999903e+01 2.697196784480012433e+00
-1.484969999999999857e+01 2.727852080316624850e+00
-1.484380000000000166e+01 2.757860718149562018e+00
-1.483790000000000120e+01 2.787170098883800406e+00
-1.483200000000000074e+01 2.815726817900496837e+00
-1.482610000000000028e+01 2.843476937652638092e+00
-1.482029999999999959e+01 2.870366274712434329e+00
-1.481439999999999912e+01 2.896340692961363317e+00
-1.480849999999999866e+01 2.921346414522623114e+00
-1.480260000000000176e+01 2.945330326016926570e+00
-1.479670000000000130e+01 2.968240297129011385e+00
-1.479080000000000084e+01 2.990025494325375011e+00
-1.478490000000000038e+01 3.010636692339781373e+00
-1.477899999999999991e+01 3.030026585182266974e+00
-1.477309999999999945e+01 3.048150084605460997e+00
-1.476729999999999876e+01 3.064964613273670757e+00
-1.476140000000000185e+01 3.080430382141581269e+00
-1.475550000000000139e+01 3.094510661274028074e+00
-1.474960000000000093e+01 3.107172027620289878e+00
-1.474370000000000047e+01 3.118384602280716678e+00
-1.473780000000000001e+01 3.128122266821141029e+00
-1.473189999999999955e+01 3.136362866260361315e+00
-1.472599999999999909e+01 3.143088390062273696e+00
-1.472009999999999863e+01 3.148285133375799738e+00
-1.471430000000000149e+01 3.151943840169063815e+00
-1.470840000000000103e+01 3.154059833290693504e+00
-1.470250000000000057e+01 3.154633111419059777e+00
-1.469660000000000011e+01 3.153668440393950334e+00
-1.469069999999999965e+01 3.151175422126347936e+00
-1.468479999999999919e+01 3.147168541274020015e+00
-1.467889999999999873e+01 3.141667200733285092e+00
-1.467300000000000182e+01 3.134695734215009910e+00
-1.466710000000000136e+01 3.126283402797668920e+00
-1.466130000000000067e+01 3.116464380637040676e+00
-1.465540000000000020e+01 3.105277714265719080e+00
-1.464949999999999974e+01 3.092767276560844270e+00
-1.464359999999999928e+01 3.078981700348355055e+00
-1.463769999999999882e+01 3.063974293514527325e+00
-1.463180000000000192e+01 3.047802947178380517e+00
-1.462590000000000146e+01 3.030530024710109238e+00
-1.462000000000000099e+01 3.012222232677101541e+00
-1.461410000000000053e+01 2.992950482543232482e+00
-1.460829999999999984e+01 2.972789738034717910e+00
-1.460239999999999938e+01 2.951818841932914328e+00
-1.459649999999999892e+01 2.930120330186362754e+00
-1.459059999999999846e+01 2.907780231034353680e+00
-1.458470000000000155e+01 2.884887848547239564e+00
-1.457880000000000109e+01 2.861535523917318358e+00
-1.457290000000000063e+01 2.837818388609378850e+00
-1.456700000000000017e+01 2.813834092543996412e+00
-1.456109999999999971e+01 2.789682515775470772e+00
-1.455529999999999902e+01 2.765465469895813655e+00
-1.454939999999999856e+01 2.741286369102266640e+00
-1.454350000000000165e+01 2.717249894132980792e+00
-1.453760000000000119e+01 2.693461636757590760e+00
-1.453170000000000073e+01 2.670027724726784513e+00
-1.452580000000000027e+01 2.647054430431562189e+00
-1.451989999999999981e+01 2.624647772430715342e+00
-1.451399999999999935e+01 2.602913094965365826e+00
-1.450809999999999889e+01 2.581954638628880527e+00
-1.450230000000000175e+01 2.561875103362832640e+00
-1.449640000000000128e+01 2.542775197418992050e+00
-1.449050000000000082e+01 2.524753182369037230e+00
-1.448460000000000036e+01 2.507904412654306636e+00
-1.447869999999999990e+01 2.492320874400090869e+00
-1.447279999999999944e+01 2.478090717645059282e+00
-1.446689999999999898e+01 2.465297802494758717e+00
-1.446099999999999852e+01 2.454021238520859960e+00
-1.445510000000000161e+01 2.444334934747224075e+00
-1.444930000000000092e+01 2.436307170523427157e+00
-1.444340000000000046e+01 2.430000163484585585e+00
-1.443750000000000000e+01 2.425469666820979864e+00
-1.443159999999999954e+01 2.422764580976626281e+00
-1.442569999999999908e+01 2.421926586471514042e+00
-1.441979999999999862e+01 2.422989806926851841e+00
-1.441390000000000171e+01 2.425980500755900771e+00
-1.440800000000000125e+01 2.430916777406250340e+00
-1.440210000000000079e+01 2.437808355554256678e+00
-1.439630000000000010e+01 2.446656355328609589e+00
-1.439039999999999964e+01 2.457453129176546902e+00
-1.438449999999999918e+01 2.470182140000169557e+00
-1.437859999999999872e+01 2.484817874281311845e+00
-1.437270000000000181e+01 2.501325808713679155e+00
-1.436680000000000135e+01 2.519662424919570487e+00
-1.436090000000000089e+01 2.539775267940000969e+00
-1.435500000000000043e+01 2.561603057034989028e+00
-1.434909999999999997e+01 2.585075846513307685e+00
-1.434329999999999927e+01 2.610115241493557559e+00
-1.433739999999999881e+01 2.636634659801470715e+00
-1.433150000000000190e+01 2.664539644850975275e+00
-1.432560000000000144e+01 2.693728230408845015e+00
-1.431970000000000098e+01 2.724091353846099572e+00
-1.431380000000000052e+01 2.755513311011045463e+00
-1.430790000000000006e+01 2.787872266749268135e+00
-1.430199999999999960e+01 2.821040794900315785e+00
-1.429609999999999914e+01 2.854886472142527776e+00
-1.429029999999999845e+01 2.889272500238539543e+00
-1.428440000000000154e+01 2.924058362236736652e+00
-1.427850000000000108e+01 2.959100514941425786e+00
-1.427260000000000062e+01 2.994253101244865878e+00
-1.426670000000000016e+01 3.029368686409573908e+00
-1.426079999999999970e+01 3.064299016013903199e+00
-1.425489999999999924e+01 3.098895775521465001e+00
-1.424899999999999878e+01 3.133011366923109886e+00
-1.424310000000000187e+01 3.166499677975700866e+00
-1.423730000000000118e+01 3.199216852897135421e+00
-1.423140000000000072e+01 3.231022054446532454e+00
-1.422550000000000026e+01 3.261778202116152769e+00
-1.421959999999999980e+01 3.291352696619492146e+00
-1.421369999999999933e+01 3.319618117797085599e+00
-1.420779999999999887e+01 3.346452888921260360e+00
-1.420190000000000197e+01 3.371741903619714709e+00
-1.419600000000000151e+01 3.395377113736129271e+00
-1.419010000000000105e+01 3.417258076459064764e+00
-1.418430000000000035e+01 3.437292441872166648e+00
-1.417839999999999989e+01 3.455396396794360836e+00
-1.417249999999999943e+01 3.471495055510221750e+00
-1.416659999999999897e+01 3.485522782485963145e+00
-1.416069999999999851e+01 3.497423465956302380e+00
-1.415480000000000160e+01 3.507150725516195333e+00
-1.414890000000000114e+01 3.514668057448776750e+00
-1.414300000000000068e+01 3.519948920301085415e+00
-1.413710000000000022e+01 3.522976758124235275e+00
-1.413129999999999953e+01 3.523744958539781980e+00
-1.412539999999999907e+01 3.522256758228958784e+00
-1.411949999999999861e+01 3.518525086433862192e+00
-1.411360000000000170e+01 3.512572351564147599e+00
-1.410770000000000124e+01 3.504430180324515920e+00
-1.410180000000000078e+01 3.494139105240810395e+00
-1.409590000000000032e+01 3.481748204016072989e+00
-1.408999999999999986e+01 3.467314709212695689e+00
-1.408409999999999940e+01 3.450903564703888815e+00
-1.407829999999999870e+01 3.432586970738007448e+00
-1.407240000000000180e+01 3.412443882817886909e+00
-1.406650000000000134e+01 3.390559506567688342e+00
-1.406060000000000088e+01 3.367024764140909454e+00
-1.405470000000000041e+01 3.341935755385620155e+00
-1.404879999999999995e+01 3.315393217141135551e+00
-1.404289999999999949e+01 3.287501967579726792e+00
-1.403699999999999903e+01 3.258370373433193912e+00
-1.403109999999999857e+01 3.228109811648409710e+00
-1.402530000000000143e+01 3.196834146299951662e+00
-1.401940000000000097e+01 3.164659230218111130e+00
-1.401350000000000051e+01 3.131702418283255795e+00
-1.400760000000000005e+01 3.098082105326168900e+00
-1.400169999999999959e+01 3.063917297527851691e+00
-1.399579999999999913e+01 3.029327206288798369e+00
-1.398989999999999867e+01 2.994430873403829629e+00
-1.398400000000000176e+01 2.959346832398988436e+00
-1.397810000000000130e+01 2.924192796559304863e+00
-1.397230000000000061e+01 2.889085392096805371e+00
-1.396640000000000015e+01 2.854139911034875965e+00
-1.396049999999999969e+01 2.819470109009700742e+00
-1.395459999999999923e+01 2.785188027729081028e+00
-1.394869999999999877e+01 2.751403856562661954e+00
-1.394280000000000186e+01 2.718225816107057824e+00
-1.393690000000000140e+01 2.685760071681972061e+00
-1.393100000000000094e+01 2.654110671923426867e+00
-1.392510000000000048e+01 2.623379510667237291e+00
-1.391929999999999978e+01 2.593666302254689526e+00
-1.391339999999999932e+01 2.565068576805196621e+00
-1.390749999999999886e+01 2.537681691275372575e+00
-1.390160000000000196e+01 2.511598833758818206e+00
-1.389570000000000149e+01 2.486911051617208823e+00
-1.388980000000000103e+01 2.463707268497228764e+00
-1.388390000000000057e+01 2.442074298912670027e+00
-1.387800000000000011e+01 2.422096864188357568e+00
-1.387209999999999965e+01 2.403857593237458179e+00
-1.386629999999999896e+01 2.387437011480537663e+00
-1.386039999999999850e+01 2.372913517967405905e+00
-1.385450000000000159e+01 2.360363339838244645e+00
-1.384860000000000113e+01 2.349860472667118838e+00
-1.384270000000000067e+01 2.341476595439749175e+00
-1.383680000000000021e+01 2.335280965062075609e+00
-1.383089999999999975e+01 2.331340285246213284e+00
-1.382499999999999929e+01 2.329718551954587102e+00
-1.381909999999999883e+01 2.330476872273404609e+00
-1.381330000000000169e+01 2.333673263500559703e+00
-1.380740000000000123e+01 2.339362425158200587e+00
-1.380150000000000077e+01 2.347595489053857953e+00
-1.379560000000000031e+01 2.358419753588928636e+00