 vasp.6.3.2 27Jun22 (build Sep 20 2022 16:10:27) complex                        
  
 executed on             LinuxIFC date 2024.11.08  23:09:12
 running on   36 total cores
 distrk:  each k-point on   36 cores,    1 groups
 distr:  one band on NCORE=   9 cores,    4 groups


--------------------------------------------------------------------------------------------------------


 INCAR:
   SYSTEM = PDOS-Calculation-from-SCF
   ISTART = 0
   ICHARG = 11
   ENCUT = 500.0
   ISMEAR = -5
   SIGMA = 0.05
   LREAL = .FALSE.
   PREC = Accurate
   EDIFF = 1E-07
   NELM = 100
   ALGO = Normal
   IBRION = -1
   LASPH = .TRUE
   NCORE = 9
   ISPIN = 1
   LORBIT = 11
   EMIN = -5
   EMAX = 5
   NEDOS = 5000
   LWAVE = .FALSE.
   LCHARG = .TRUE.
   LVTOT = .TRUE.
   ADDGRID = .TRUE.

 POTCAR:    PAW_PBE Zn 06Sep2000                  
 POTCAR:    PAW_PBE In_d 06Sep2000                
 POTCAR:    PAW_PBE S 06Sep2000                   
 WARNING: For LVTOT=.TRUE., VASP.5.x writes the TOTAL local potential to the
     file LOCPOT. If you want only the Hartree contributions, use LVHAR=.TRUE.
     instead. 

 POTCAR:    PAW_PBE Zn 06Sep2000                  
   SHA256 =  501fddbd8274dd8e9725d4f3de27861d7f1e553a7e18441bc79fed8f346e7f23 Zn/POTCAR             
   COPYR  = (c) Copyright 06Sep2000 Georg Kresse                                                    
   COPYR  = This file is part of the software VASP. Any use, copying, and all other rights are regul
   COPYR  = If you do not have a valid VASP license, you may not use, copy or distribute this file. 
   VRHFIN =Zn: d10 p2                                                                               
   LEXCH  = PE                                                                                      
   EATOM  =  1748.8345 eV,  128.5357 Ry                                                             
                                                                                                    
   TITEL  = PAW_PBE Zn 06Sep2000                                                                    
   LULTRA =        F    use ultrasoft PP ?                                                          
   IUNSCR =        1    unscreen: 0-lin 1-nonlin 2-no                                               
   RPACOR =    2.000    partial core radius                                                         
   POMASS =   65.390; ZVAL   =   12.000    mass and valenz                                          
   RCORE  =    2.300    outmost cutoff radius                                                       
   RWIGS  =    2.400; RWIGS  =    1.270    wigner-seitz radius (au A)                               
   ENMAX  =  276.723; ENMIN  =  207.542 eV                                                          
   RCLOC  =    1.828    cutoff for local pot                                                        
   LCOR   =        T    correct aug charges                                                         
   LPAW   =        T    paw PP                                                                      
   EAUG   =  575.892                                                                                
   DEXC   =    0.000                                                                                
   RMAX   =    2.347    core radius for proj-oper                                                   
   RAUG   =    1.300    factor for augmentation sphere                                              
   RDEP   =    2.324    radius for radial grids                                                     
   RDEPT  =    1.788    core radius for aug-charge                                                  
                                                                                                    
   Atomic configuration                                                                             
    9 entries                                                                                       
     n  l   j            E        occ.                                                              
     1  0  0.50     -9524.6913   2.0000                                                             
     2  0  0.50     -1158.1882   2.0000                                                             
     2  1  1.50     -1003.8506   6.0000                                                             
     3  0  0.50      -129.2194   2.0000                                                             
     3  1  1.50       -83.3890   6.0000                                                             
     3  2  2.50       -10.1410  10.0000                                                             
     4  0  0.50        -5.9785   2.0000                                                             
     4  1  0.50        -4.0817   0.0000                                                             
     4  3  2.50        -1.3606   0.0000                                                             
   Description                                                                                      
     l       E           TYP  RCUT    TYP  RCUT                                                     
     2    -10.1410010     23  2.300                                                                 
     2    -11.5015836     23  2.300                                                                 
     0     -5.9785163     23  2.300                                                                 
     0      1.1858015     23  2.300                                                                 
     1     -2.7211652     23  2.300                                                                 
     1     13.2444212     23  2.300                                                                 
  local pseudopotential read in
  partial core-charges read in
  partial kinetic energy density read in
  atomic valenz-charges read in
  non local Contribution for L=           2  read in
    real space projection operators read in
  non local Contribution for L=           2  read in
    real space projection operators read in
  non local Contribution for L=           0  read in
    real space projection operators read in
  non local Contribution for L=           0  read in
    real space projection operators read in
  non local Contribution for L=           1  read in
    real space projection operators read in
  non local Contribution for L=           1  read in
    real space projection operators read in
    PAW grid and wavefunctions read in
 
   number of l-projection  operators is LMAX  =           6
   number of lm-projection operators is LMMAX =          18
 
 POTCAR:    PAW_PBE In_d 06Sep2000                
   SHA256 =  bef4eefb233e1f458c7ef2e09e39e7114bb5a6a38c7ac356915527764429c513 In_d/POTCAR           
   COPYR  = (c) Copyright 06Sep2000 Georg Kresse                                                    
   COPYR  = This file is part of the software VASP. Any use, copying, and all other rights are regul
   COPYR  = If you do not have a valid VASP license, you may not use, copy or distribute this file. 
   VRHFIN =In: s2p1                                                                                 
   LEXCH  = PE                                                                                      
   EATOM  =  1576.8302 eV,  115.8937 Ry                                                             
                                                                                                    
   TITEL  = PAW_PBE In_d 06Sep2000                                                                  
   LULTRA =        F    use ultrasoft PP ?                                                          
   IUNSCR =        1    unscreen: 0-lin 1-nonlin 2-no                                               
   RPACOR =    2.200    partial core radius                                                         
   POMASS =  114.820; ZVAL   =   13.000    mass and valenz                                          
   RCORE  =    2.500    outmost cutoff radius                                                       
   RWIGS  =    3.170; RWIGS  =    1.677    wigner-seitz radius (au A)                               
   ENMAX  =  239.211; ENMIN  =  179.409 eV                                                          
   ICORE  =        3    local potential                                                             
   LCOR   =        T    correct aug charges                                                         
   LPAW   =        T    paw PP                                                                      
   EAUG   =  449.704                                                                                
   DEXC   =    0.000                                                                                
   RMAX   =    2.552    core radius for proj-oper                                                   
   RAUG   =    1.300    factor for augmentation sphere                                              
   RDEP   =    2.630    radius for radial grids                                                     
   RDEPT  =    2.033    core radius for aug-charge                                                  
                                                                                                    
   Atomic configuration                                                                             
   12 entries                                                                                       
     n  l   j            E        occ.                                                              
     1  0  0.50    -27747.9169   2.0000                                                             
     2  0  0.50     -4154.4438   2.0000                                                             
     2  1  1.50     -3728.4305   6.0000                                                             
     3  0  0.50      -788.3680   2.0000                                                             
     3  1  1.50      -648.9215   6.0000                                                             
     3  2  2.50      -432.5893  10.0000                                                             
     4  0  0.50      -119.6363   2.0000                                                             
     4  1  1.50       -78.1086   6.0000                                                             
     4  2  2.50       -18.6227  10.0000                                                             
     5  0  0.50        -8.2107   2.0000                                                             
     5  1  0.50        -2.5185   1.0000                                                             
     4  3  2.50        -2.7212   0.0000                                                             
   Description                                                                                      
     l       E           TYP  RCUT    TYP  RCUT                                                     
     2    -18.6226981     23  2.500                                                                 
     2     -1.3605826     23  2.500                                                                 
     0     -8.2107305     23  2.500                                                                 
     0     -6.1485975     23  2.500                                                                 
     1     -2.5184867     23  2.500                                                                 
     1      3.2427302     23  2.500                                                                 
     3     -1.3605826      7  2.500                                                                 
  local pseudopotential read in
  partial core-charges read in
  partial kinetic energy density read in
  atomic valenz-charges read in
  non local Contribution for L=           2  read in
    real space projection operators read in
  non local Contribution for L=           2  read in
    real space projection operators read in
  non local Contribution for L=           0  read in
    real space projection operators read in
  non local Contribution for L=           0  read in
    real space projection operators read in
  non local Contribution for L=           1  read in
    real space projection operators read in
  non local Contribution for L=           1  read in
    real space projection operators read in
    PAW grid and wavefunctions read in
 
   number of l-projection  operators is LMAX  =           6
   number of lm-projection operators is LMMAX =          18
 
 POTCAR:    PAW_PBE S 06Sep2000                   
   SHA256 =  0fc7481fb0695f01bdc6462160264c5c84044ae9ec85a907d398b887a2bc3132 S/POTCAR              
   COPYR  = (c) Copyright 06Sep2000 Georg Kresse                                                    
   COPYR  = This file is part of the software VASP. Any use, copying, and all other rights are regul
   COPYR  = If you do not have a valid VASP license, you may not use, copy or distribute this file. 
   VRHFIN =S : s2p4                                                                                 
   LEXCH  = PE                                                                                      
   EATOM  =   276.8230 eV,   20.3459 Ry                                                             
                                                                                                    
   TITEL  = PAW_PBE S 06Sep2000                                                                     
   LULTRA =        F    use ultrasoft PP ?                                                          
   IUNSCR =        1    unscreen: 0-lin 1-nonlin 2-no                                               
   RPACOR =    1.500    partial core radius                                                         
   POMASS =   32.066; ZVAL   =    6.000    mass and valenz                                          
   RCORE  =    1.900    outmost cutoff radius                                                       
   RWIGS  =    2.200; RWIGS  =    1.164    wigner-seitz radius (au A)                               
   ENMAX  =  258.689; ENMIN  =  194.016 eV                                                          
   ICORE  =        2    local potential                                                             
   LCOR   =        T    correct aug charges                                                         
   LPAW   =        T    paw PP                                                                      
   EAUG   =  335.092                                                                                
   DEXC   =    0.000                                                                                
   RMAX   =    1.942    core radius for proj-oper                                                   
   RAUG   =    1.300    factor for augmentation sphere                                              
   RDEP   =    1.954    radius for radial grids                                                     
   RDEPT  =    1.744    core radius for aug-charge                                                  
                                                                                                    
   Atomic configuration                                                                             
    6 entries                                                                                       
     n  l   j            E        occ.                                                              
     1  0  0.50     -2405.8406   2.0000                                                             
     2  0  0.50      -211.7007   2.0000                                                             
     2  1  1.50      -156.4958   6.0000                                                             
     3  0  0.50       -17.2562   2.0000                                                             
     3  1  0.50        -7.0085   4.0000                                                             
     3  2  1.50        -6.8029   0.0000                                                             
   Description                                                                                      
     l       E           TYP  RCUT    TYP  RCUT                                                     
     0    -17.2561641     23  1.900                                                                 
     0    -15.8743224     23  1.900                                                                 
     1     -7.0085400     23  1.900                                                                 
     1     -2.7779785     23  1.900                                                                 
     2     -6.8029130     23  1.900                                                                 
  local pseudopotential read in
  partial core-charges read in
  partial kinetic energy density read in
  atomic valenz-charges read in
  non local Contribution for L=           0  read in
    real space projection operators read in
  non local Contribution for L=           0  read in
    real space projection operators read in
  non local Contribution for L=           1  read in
    real space projection operators read in
  non local Contribution for L=           1  read in
    real space projection operators read in
    PAW grid and wavefunctions read in
 
   number of l-projection  operators is LMAX  =           4
   number of lm-projection operators is LMMAX =           8
 
  PAW_PBE Zn 06Sep2000                  :
 energy of atom  1       EATOM=-1748.8345
 kinetic energy error for atom=    0.0029 (will be added to EATOM!!)
  PAW_PBE In_d 06Sep2000                :
 energy of atom  2       EATOM=-1576.8302
 kinetic energy error for atom=    0.0036 (will be added to EATOM!!)
  PAW_PBE S 06Sep2000                   :
 energy of atom  3       EATOM= -276.8230
 kinetic energy error for atom=    0.0020 (will be added to EATOM!!)
 
 
 POSCAR: Primitive Cell
  positions in direct lattice
  velocities in cartesian coordinates
 exchange correlation table for  LEXCH =        8
   RHO(1)=    0.500       N(1)  =     2000
   RHO(2)=  100.500       N(2)  =     4000
 


--------------------------------------------------------------------------------------------------------


 ion  position               nearest neighbor table
   1  0.392  0.392  0.392-   4 2.31   4 2.31   4 2.31   6 2.54
   2  0.162  0.162  0.162-   6 2.57   6 2.57   6 2.57   7 2.72   7 2.72   7 2.72
   3  0.937  0.937  0.937-   7 2.45   5 2.49   5 2.49   5 2.49
   4  0.044  0.044  0.044-   1 2.31   1 2.31   1 2.31
   5  0.300  0.300  0.300-   3 2.49   3 2.49   3 2.49
   6  0.461  0.461  0.461-   1 2.54   2 2.57   2 2.57   2 2.57
   7  0.870  0.870  0.870-   3 2.45   2 2.72   2 2.72   2 2.72
 
  LATTYP: Found a trigonal (rhomboedric) cell.
 ALAT       =    12.4562422578
 COS(alpha) =     0.9512521134
  
  Lattice vectors:
  
 A1 = (   1.9446880049,   1.1227661331,  12.2521653539)
 A2 = (  -1.9446880670,   1.1227661510,  12.2521653464)
 A3 = (  -0.0000000144,  -2.2455323450,  12.2521653550)


Analysis of symmetry for initial positions (statically):
=====================================================================
 Subroutine PRICEL returns:
 Original cell was already a primitive cell.
 

 Routine SETGRP: Setting up the symmetry group for a 
 trigonal (rhombohedral) supercell.


 Subroutine GETGRP returns: Found  6 space group operations
 (whereof  6 operations were pure point group operations)
 out of a pool of 12 trial point group operations.


The static configuration has the point symmetry C_3v.


Analysis of symmetry for dynamics (positions and initial velocities):
=====================================================================
 Subroutine PRICEL returns:
 Original cell was already a primitive cell.
 

 Routine SETGRP: Setting up the symmetry group for a 
 trigonal (rhombohedral) supercell.


 Subroutine GETGRP returns: Found  6 space group operations
 (whereof  6 operations were pure point group operations)
 out of a pool of 12 trial point group operations.


The dynamic configuration has the point symmetry C_3v.


 Subroutine INISYM returns: Found  6 space group operations
 (whereof  6 operations are pure point group operations),
 and found     1 'primitive' translations


----------------------------------------------------------------------------------------

                                     Primitive cell                                     

  volume of cell :     160.5105

  direct lattice vectors                    reciprocal lattice vectors
     1.944688005  1.122766133 12.252165354     0.257110648  0.148442903  0.027206076
    -1.944688067  1.122766151 12.252165346    -0.257110647  0.148442900  0.027206075
    -0.000000014 -2.245532345 12.252165355    -0.000000001 -0.296885803  0.027206075

  length of vectors
    12.456242254 12.456242258 12.456242266     0.298129756  0.298129753  0.298129754

  position of ions in fractional coordinates (direct lattice)
     0.391750106  0.391750104  0.391750092
     0.161781926  0.161781931  0.161781971
     0.937134660  0.937134667  0.937134656
     0.043793497  0.043793498  0.043793499
     0.299593712  0.299593707  0.299593678
     0.460967032  0.460967029  0.460967008
     0.870379067  0.870379064  0.870379095

  ion indices of the primitive-cell ions
   primitive index   ion index
                 1           1
                 2           2
                 3           3
                 4           4
                 5           5
                 6           6
                 7           7

----------------------------------------------------------------------------------------

 
 
 KPOINTS: K-Spacing Value to Generate K-Mesh: 0.03

Automatic generation of k-mesh.
 Grid dimensions read from file:
 generate k-points for:   25   25   25

 Generating k-lattice:

  Cartesian coordinates                     Fractional coordinates (reciprocal lattice)
     0.010284426  0.005937716  0.001088243     0.040000000 -0.000000000  0.000000000
    -0.010284426  0.005937716  0.001088243     0.000000000  0.040000000  0.000000000
    -0.000000000 -0.011875432  0.001088243     0.000000000 -0.000000000  0.040000000

  Length of vectors
     0.011925190  0.011925190  0.011925190

  Shift w.r.t. Gamma in fractional coordinates (k-lattice)
     0.000000000  0.000000000  0.000000000

 TETIRR: Found   7825 inequivalent tetrahedra from    93750
 
 Subroutine IBZKPT returns following result:
 ===========================================
 
 Found   1469 irreducible k-points:
 
 Following reciprocal coordinates:
            Coordinates               Weight
  0.000000  0.000000  0.000000      1.000000
  0.040000  0.000000  0.000000      6.000000
  0.080000  0.000000  0.000000      6.000000
  0.120000 -0.000000  0.000000      6.000000
  0.160000  0.000000 -0.000000      6.000000
  0.200000 -0.000000 -0.000000      6.000000
  0.240000  0.000000 -0.000000      6.000000
  0.280000  0.000000 -0.000000      6.000000
  0.320000 -0.000000  0.000000      6.000000
  0.360000 -0.000000  0.000000      6.000000
  0.400000 -0.000000  0.000000      6.000000
  0.440000  0.000000  0.000000      6.000000
  0.480000  0.000000 -0.000000      6.000000
  0.040000  0.040000  0.000000      6.000000
  0.080000  0.040000  0.000000     12.000000
  0.120000  0.040000 -0.000000     12.000000
  0.160000  0.040000 -0.000000     12.000000
  0.200000  0.040000 -0.000000     12.000000
  0.240000  0.040000 -0.000000     12.000000
  0.280000  0.040000  0.000000     12.000000
  0.320000  0.040000  0.000000     12.000000
  0.360000  0.040000  0.000000     12.000000
  0.400000  0.040000 -0.000000     12.000000
  0.440000  0.040000 -0.000000     12.000000
  0.480000  0.040000 -0.000000     12.000000
 -0.480000  0.040000 -0.000000     12.000000
 -0.440000  0.040000 -0.000000     12.000000
 -0.400000  0.040000 -0.000000     12.000000
 -0.360000  0.040000  0.000000     12.000000
 -0.320000  0.040000  0.000000     12.000000
 -0.280000  0.040000  0.000000     12.000000
 -0.240000  0.040000 -0.000000     12.000000
 -0.200000  0.040000 -0.000000     12.000000
 -0.160000  0.040000 -0.000000     12.000000
 -0.120000  0.040000 -0.000000     12.000000
 -0.080000  0.040000  0.000000     12.000000
 -0.040000  0.040000  0.000000      6.000000
  0.080000  0.080000 -0.000000      6.000000
  0.120000  0.080000 -0.000000     12.000000
  0.160000  0.080000  0.000000     12.000000
  0.200000  0.080000  0.000000     12.000000
  0.240000  0.080000  0.000000     12.000000
  0.280000  0.080000  0.000000     12.000000
  0.320000  0.080000  0.000000     12.000000
  0.360000  0.080000 -0.000000     12.000000
  0.400000  0.080000 -0.000000     12.000000
  0.440000  0.080000 -0.000000     12.000000
  0.480000  0.080000  0.000000     12.000000
 -0.480000  0.080000 -0.000000     12.000000
 -0.440000  0.080000  0.000000     12.000000
 -0.400000  0.080000  0.000000     12.000000
 -0.360000  0.080000 -0.000000     12.000000
 -0.320000  0.080000 -0.000000     12.000000
 -0.280000  0.080000 -0.000000     12.000000
 -0.240000  0.080000 -0.000000     12.000000
 -0.200000  0.080000 -0.000000     12.000000
 -0.160000  0.080000 -0.000000     12.000000
 -0.120000  0.080000  0.000000     12.000000
 -0.080000  0.080000  0.000000      6.000000
  0.120000  0.120000  0.000000      6.000000
  0.160000  0.120000  0.000000     12.000000
  0.200000  0.120000  0.000000     12.000000
  0.240000  0.120000  0.000000     12.000000
  0.280000  0.120000  0.000000     12.000000
  0.320000  0.120000 -0.000000     12.000000
  0.360000  0.120000 -0.000000     12.000000
  0.400000  0.120000  0.000000     12.000000
  0.440000  0.120000  0.000000     12.000000
  0.480000  0.120000  0.000000     12.000000
 -0.480000  0.120000  0.000000     12.000000
 -0.440000  0.120000  0.000000     12.000000
 -0.400000  0.120000  0.000000     12.000000
 -0.360000  0.120000 -0.000000     12.000000
 -0.320000  0.120000 -0.000000     12.000000
 -0.280000  0.120000 -0.000000     12.000000
 -0.240000  0.120000  0.000000     12.000000
 -0.200000  0.120000  0.000000     12.000000
 -0.160000  0.120000  0.000000     12.000000
 -0.120000  0.120000  0.000000      6.000000
  0.160000  0.160000 -0.000000      6.000000
  0.200000  0.160000  0.000000     12.000000
  0.240000  0.160000 -0.000000     12.000000
  0.280000  0.160000 -0.000000     12.000000
  0.320000  0.160000 -0.000000     12.000000
  0.360000  0.160000  0.000000     12.000000
  0.400000  0.160000  0.000000     12.000000
  0.440000  0.160000  0.000000     12.000000
  0.480000  0.160000 -0.000000     12.000000
 -0.480000  0.160000  0.000000     12.000000
 -0.440000  0.160000  0.000000     12.000000
 -0.400000  0.160000 -0.000000     12.000000
 -0.360000  0.160000 -0.000000     12.000000
 -0.320000  0.160000 -0.000000     12.000000
 -0.280000  0.160000  0.000000     12.000000
 -0.240000  0.160000  0.000000     12.000000
 -0.200000  0.160000  0.000000     12.000000
 -0.160000  0.160000 -0.000000      6.000000
  0.200000  0.200000  0.000000      6.000000
  0.240000  0.200000 -0.000000     12.000000
  0.280000  0.200000 -0.000000     12.000000
  0.320000  0.200000 -0.000000     12.000000
  0.360000  0.200000  0.000000     12.000000
  0.400000  0.200000  0.000000     12.000000
  0.440000  0.200000  0.000000     12.000000
  0.480000  0.200000 -0.000000     12.000000
 -0.480000  0.200000 -0.000000     12.000000
 -0.440000  0.200000  0.000000     12.000000
 -0.400000  0.200000  0.000000     12.000000
 -0.360000  0.200000 -0.000000     12.000000
 -0.320000  0.200000 -0.000000     12.000000
 -0.280000  0.200000  0.000000     12.000000
 -0.240000  0.200000  0.000000     12.000000
 -0.200000  0.200000  0.000000      6.000000
  0.240000  0.240000 -0.000000      6.000000
  0.280000  0.240000 -0.000000     12.000000
  0.320000  0.240000  0.000000     12.000000
  0.360000  0.240000  0.000000     12.000000
  0.400000  0.240000  0.000000     12.000000
  0.440000  0.240000 -0.000000     12.000000
  0.480000  0.240000 -0.000000     12.000000
 -0.480000  0.240000  0.000000     12.000000
 -0.440000  0.240000  0.000000     12.000000
 -0.400000  0.240000 -0.000000     12.000000
 -0.360000  0.240000  0.000000     12.000000
 -0.320000  0.240000  0.000000     12.000000
 -0.280000  0.240000 -0.000000     12.000000
 -0.240000  0.240000  0.000000      6.000000
  0.280000  0.280000  0.000000      6.000000
  0.320000  0.280000  0.000000     12.000000
  0.360000  0.280000 -0.000000     12.000000
  0.400000  0.280000 -0.000000     12.000000
  0.440000  0.280000 -0.000000     12.000000
  0.480000  0.280000 -0.000000     12.000000
 -0.480000  0.280000 -0.000000     12.000000
 -0.440000  0.280000 -0.000000     12.000000
 -0.400000  0.280000  0.000000     12.000000
 -0.360000  0.280000  0.000000     12.000000
 -0.320000  0.280000 -0.000000     12.000000
 -0.280000  0.280000  0.000000      6.000000
  0.320000  0.320000 -0.000000      6.000000
  0.360000  0.320000 -0.000000     12.000000
  0.400000  0.320000 -0.000000     12.000000
  0.440000  0.320000  0.000000     12.000000
  0.480000  0.320000  0.000000     12.000000
 -0.480000  0.320000 -0.000000     12.000000
 -0.440000  0.320000  0.000000     12.000000
 -0.400000  0.320000 -0.000000     12.000000
 -0.360000  0.320000  0.000000     12.000000
 -0.320000  0.320000 -0.000000      6.000000
  0.360000  0.360000 -0.000000      6.000000
  0.400000  0.360000  0.000000     12.000000
  0.440000  0.360000  0.000000     12.000000
  0.480000  0.360000  0.000000     12.000000
 -0.480000  0.360000  0.000000     12.000000
 -0.440000  0.360000 -0.000000     12.000000
 -0.400000  0.360000  0.000000     12.000000
 -0.360000  0.360000 -0.000000      6.000000
  0.400000  0.400000  0.000000      6.000000
  0.440000  0.400000  0.000000     12.000000
  0.480000  0.400000  0.000000     12.000000
 -0.480000  0.400000 -0.000000     12.000000
 -0.440000  0.400000  0.000000     12.000000
 -0.400000  0.400000 -0.000000      6.000000
  0.440000  0.440000 -0.000000      6.000000
  0.480000  0.440000 -0.000000     12.000000
 -0.480000  0.440000 -0.000000     12.000000
 -0.440000  0.440000 -0.000000      6.000000
  0.480000  0.480000  0.000000      6.000000
 -0.480000  0.480000 -0.000000      6.000000
  0.040000  0.040000  0.040000      2.000000
  0.080000  0.040000  0.040000      6.000000
  0.120000  0.040000  0.040000      6.000000
  0.160000  0.040000  0.040000      6.000000
  0.200000  0.040000  0.040000      6.000000
  0.240000  0.040000  0.040000      6.000000
  0.280000  0.040000  0.040000      6.000000
  0.320000  0.040000  0.040000      6.000000
  0.360000  0.040000  0.040000      6.000000
  0.400000  0.040000  0.040000      6.000000
  0.440000  0.040000  0.040000      6.000000
  0.480000  0.040000  0.040000      6.000000
 -0.480000  0.040000  0.040000      6.000000
 -0.440000  0.040000  0.040000      6.000000
 -0.400000  0.040000  0.040000      6.000000
 -0.360000  0.040000  0.040000      6.000000
 -0.320000  0.040000  0.040000      6.000000
 -0.280000  0.040000  0.040000      6.000000
 -0.240000  0.040000  0.040000      6.000000
 -0.200000  0.040000  0.040000      6.000000
 -0.160000  0.040000  0.040000      6.000000
 -0.120000  0.040000  0.040000      6.000000
 -0.080000  0.040000  0.040000      6.000000
 -0.040000  0.040000  0.040000      6.000000
  0.080000  0.080000  0.040000      6.000000
  0.120000  0.080000  0.040000     12.000000
  0.160000  0.080000  0.040000     12.000000
  0.200000  0.080000  0.040000     12.000000
  0.240000  0.080000  0.040000     12.000000
  0.280000  0.080000  0.040000     12.000000
  0.320000  0.080000  0.040000     12.000000
  0.360000  0.080000  0.040000     12.000000
  0.400000  0.080000  0.040000     12.000000
  0.440000  0.080000  0.040000     12.000000
  0.480000  0.080000  0.040000     12.000000
 -0.480000  0.080000  0.040000     12.000000
 -0.440000  0.080000  0.040000     12.000000
 -0.400000  0.080000  0.040000     12.000000
 -0.360000  0.080000  0.040000     12.000000
 -0.320000  0.080000  0.040000     12.000000
 -0.280000  0.080000  0.040000     12.000000
 -0.240000  0.080000  0.040000     12.000000
 -0.200000  0.080000  0.040000     12.000000
 -0.160000  0.080000  0.040000     12.000000
 -0.120000  0.080000  0.040000     12.000000
 -0.080000  0.080000  0.040000     12.000000
 -0.040000  0.080000  0.040000     12.000000
  0.120000  0.120000  0.040000      6.000000
  0.160000  0.120000  0.040000     12.000000
  0.200000  0.120000  0.040000     12.000000
  0.240000  0.120000  0.040000     12.000000
  0.280000  0.120000  0.040000     12.000000
  0.320000  0.120000  0.040000     12.000000
  0.360000  0.120000  0.040000     12.000000
  0.400000  0.120000  0.040000     12.000000
  0.440000  0.120000  0.040000     12.000000
  0.480000  0.120000  0.040000     12.000000
 -0.480000  0.120000  0.040000     12.000000
 -0.440000  0.120000  0.040000     12.000000
 -0.400000  0.120000  0.040000     12.000000
 -0.360000  0.120000  0.040000     12.000000
 -0.320000  0.120000  0.040000     12.000000
 -0.280000  0.120000  0.040000     12.000000
 -0.240000  0.120000  0.040000     12.000000
 -0.200000  0.120000  0.040000     12.000000
 -0.160000  0.120000  0.040000     12.000000
 -0.120000  0.120000  0.040000     12.000000
 -0.080000  0.120000  0.040000     12.000000
 -0.040000  0.120000  0.040000     12.000000
  0.160000  0.160000  0.040000      6.000000
  0.200000  0.160000  0.040000     12.000000
  0.240000  0.160000  0.040000     12.000000
  0.280000  0.160000  0.040000     12.000000
  0.320000  0.160000  0.040000     12.000000
  0.360000  0.160000  0.040000     12.000000
  0.400000  0.160000  0.040000     12.000000
  0.440000  0.160000  0.040000     12.000000
  0.480000  0.160000  0.040000     12.000000
 -0.480000  0.160000  0.040000     12.000000
 -0.440000  0.160000  0.040000     12.000000
 -0.400000  0.160000  0.040000     12.000000
 -0.360000  0.160000  0.040000     12.000000
 -0.320000  0.160000  0.040000     12.000000
 -0.280000  0.160000  0.040000     12.000000
 -0.240000  0.160000  0.040000     12.000000
 -0.200000  0.160000  0.040000     12.000000
 -0.160000  0.160000  0.040000     12.000000
 -0.120000  0.160000  0.040000     12.000000
 -0.080000  0.160000  0.040000     12.000000
 -0.040000  0.160000  0.040000     12.000000
  0.200000  0.200000  0.040000      6.000000
  0.240000  0.200000  0.040000     12.000000
  0.280000  0.200000  0.040000     12.000000
  0.320000  0.200000  0.040000     12.000000
  0.360000  0.200000  0.040000     12.000000
  0.400000  0.200000  0.040000     12.000000
  0.440000  0.200000  0.040000     12.000000
  0.480000  0.200000  0.040000     12.000000
 -0.480000  0.200000  0.040000     12.000000
 -0.440000  0.200000  0.040000     12.000000
 -0.400000  0.200000  0.040000     12.000000
 -0.360000  0.200000  0.040000     12.000000
 -0.320000  0.200000  0.040000     12.000000
 -0.280000  0.200000  0.040000     12.000000
 -0.240000  0.200000  0.040000     12.000000
 -0.200000  0.200000  0.040000     12.000000
 -0.160000  0.200000  0.040000     12.000000
 -0.120000  0.200000  0.040000     12.000000
 -0.080000  0.200000  0.040000     12.000000
 -0.040000  0.200000  0.040000     12.000000
  0.240000  0.240000  0.040000      6.000000
  0.280000  0.240000  0.040000     12.000000
  0.320000  0.240000  0.040000     12.000000
  0.360000  0.240000  0.040000     12.000000
  0.400000  0.240000  0.040000     12.000000
  0.440000  0.240000  0.040000     12.000000
  0.480000  0.240000  0.040000     12.000000
 -0.480000  0.240000  0.040000     12.000000
 -0.440000  0.240000  0.040000     12.000000
 -0.400000  0.240000  0.040000     12.000000
 -0.360000  0.240000  0.040000     12.000000
 -0.320000  0.240000  0.040000     12.000000
 -0.280000  0.240000  0.040000     12.000000
 -0.240000  0.240000  0.040000     12.000000
 -0.200000  0.240000  0.040000     12.000000
 -0.160000  0.240000  0.040000     12.000000
 -0.120000  0.240000  0.040000     12.000000
 -0.080000  0.240000  0.040000     12.000000
 -0.040000  0.240000  0.040000     12.000000
  0.280000  0.280000  0.040000      6.000000
  0.320000  0.280000  0.040000     12.000000
  0.360000  0.280000  0.040000     12.000000
  0.400000  0.280000  0.040000     12.000000
  0.440000  0.280000  0.040000     12.000000
  0.480000  0.280000  0.040000     12.000000
 -0.480000  0.280000  0.040000     12.000000
 -0.440000  0.280000  0.040000     12.000000
 -0.400000  0.280000  0.040000     12.000000
 -0.360000  0.280000  0.040000     12.000000
 -0.320000  0.280000  0.040000     12.000000
 -0.280000  0.280000  0.040000     12.000000
 -0.240000  0.280000  0.040000     12.000000
 -0.200000  0.280000  0.040000     12.000000
 -0.160000  0.280000  0.040000     12.000000
 -0.120000  0.280000  0.040000     12.000000
 -0.080000  0.280000  0.040000     12.000000
 -0.040000  0.280000  0.040000     12.000000
  0.320000  0.320000  0.040000      6.000000
  0.360000  0.320000  0.040000     12.000000
  0.400000  0.320000  0.040000     12.000000
  0.440000  0.320000  0.040000     12.000000
  0.480000  0.320000  0.040000     12.000000
 -0.480000  0.320000  0.040000     12.000000
 -0.440000  0.320000  0.040000     12.000000
 -0.400000  0.320000  0.040000     12.000000
 -0.360000  0.320000  0.040000     12.000000
 -0.320000  0.320000  0.040000     12.000000
 -0.280000  0.320000  0.040000     12.000000
 -0.240000  0.320000  0.040000     12.000000
 -0.200000  0.320000  0.040000     12.000000
 -0.160000  0.320000  0.040000     12.000000
 -0.120000  0.320000  0.040000     12.000000
 -0.080000  0.320000  0.040000     12.000000
 -0.040000  0.320000  0.040000     12.000000
  0.360000  0.360000  0.040000      6.000000
  0.400000  0.360000  0.040000     12.000000
  0.440000  0.360000  0.040000     12.000000
  0.480000  0.360000  0.040000     12.000000
 -0.480000  0.360000  0.040000     12.000000
 -0.440000  0.360000  0.040000     12.000000
 -0.400000  0.360000  0.040000     12.000000
 -0.360000  0.360000  0.040000     12.000000
 -0.320000  0.360000  0.040000     12.000000
 -0.280000  0.360000  0.040000     12.000000
 -0.240000  0.360000  0.040000     12.000000
 -0.200000  0.360000  0.040000     12.000000
 -0.160000  0.360000  0.040000     12.000000
 -0.120000  0.360000  0.040000     12.000000
 -0.080000  0.360000  0.040000     12.000000
 -0.040000  0.360000  0.040000     12.000000
  0.400000  0.400000  0.040000      6.000000
  0.440000  0.400000  0.040000     12.000000
  0.480000  0.400000  0.040000     12.000000
 -0.480000  0.400000  0.040000     12.000000
 -0.440000  0.400000  0.040000     12.000000
 -0.400000  0.400000  0.040000     12.000000
 -0.360000  0.400000  0.040000     12.000000
 -0.320000  0.400000  0.040000     12.000000
 -0.280000  0.400000  0.040000     12.000000
 -0.240000  0.400000  0.040000     12.000000
 -0.200000  0.400000  0.040000     12.000000
 -0.160000  0.400000  0.040000     12.000000
 -0.120000  0.400000  0.040000     12.000000
 -0.080000  0.400000  0.040000     12.000000
 -0.040000  0.400000  0.040000     12.000000
  0.440000  0.440000  0.040000      6.000000
  0.480000  0.440000  0.040000     12.000000
 -0.480000  0.440000  0.040000     12.000000
 -0.440000  0.440000  0.040000     12.000000
 -0.400000  0.440000  0.040000     12.000000
 -0.360000  0.440000  0.040000     12.000000
 -0.320000  0.440000  0.040000     12.000000
 -0.280000  0.440000  0.040000     12.000000
 -0.240000  0.440000  0.040000     12.000000
 -0.200000  0.440000  0.040000     12.000000
 -0.160000  0.440000  0.040000     12.000000
 -0.120000  0.440000  0.040000     12.000000
 -0.080000  0.440000  0.040000     12.000000
 -0.040000  0.440000  0.040000     12.000000
  0.480000  0.480000  0.040000      6.000000
 -0.480000  0.480000  0.040000     12.000000
 -0.440000  0.480000  0.040000     12.000000
 -0.400000  0.480000  0.040000     12.000000
 -0.360000  0.480000  0.040000     12.000000
 -0.320000  0.480000  0.040000     12.000000
 -0.280000  0.480000  0.040000     12.000000
 -0.240000  0.480000  0.040000     12.000000
 -0.200000  0.480000  0.040000     12.000000
 -0.160000  0.480000  0.040000     12.000000
 -0.120000  0.480000  0.040000     12.000000
 -0.080000  0.480000  0.040000     12.000000
 -0.040000  0.480000  0.040000     12.000000
 -0.480000 -0.480000  0.040000      6.000000
 -0.440000 -0.480000  0.040000     12.000000
 -0.400000 -0.480000  0.040000     12.000000
 -0.360000 -0.480000  0.040000     12.000000
 -0.320000 -0.480000  0.040000     12.000000
 -0.280000 -0.480000  0.040000     12.000000
 -0.240000 -0.480000  0.040000     12.000000
 -0.200000 -0.480000  0.040000     12.000000
 -0.160000 -0.480000  0.040000     12.000000
 -0.120000 -0.480000  0.040000     12.000000
 -0.080000 -0.480000  0.040000     12.000000
 -0.440000 -0.440000  0.040000      6.000000
 -0.400000 -0.440000  0.040000     12.000000
 -0.360000 -0.440000  0.040000     12.000000
 -0.320000 -0.440000  0.040000     12.000000
 -0.280000 -0.440000  0.040000     12.000000
 -0.240000 -0.440000  0.040000     12.000000
 -0.200000 -0.440000  0.040000     12.000000
 -0.160000 -0.440000  0.040000     12.000000
 -0.120000 -0.440000  0.040000     12.000000
 -0.080000 -0.440000  0.040000     12.000000
 -0.400000 -0.400000  0.040000      6.000000
 -0.360000 -0.400000  0.040000     12.000000
 -0.320000 -0.400000  0.040000     12.000000
 -0.280000 -0.400000  0.040000     12.000000
 -0.240000 -0.400000  0.040000     12.000000
 -0.200000 -0.400000  0.040000     12.000000
 -0.160000 -0.400000  0.040000     12.000000
 -0.120000 -0.400000  0.040000     12.000000
 -0.080000 -0.400000  0.040000     12.000000
 -0.360000 -0.360000  0.040000      6.000000
 -0.320000 -0.360000  0.040000     12.000000
 -0.280000 -0.360000  0.040000     12.000000
 -0.240000 -0.360000  0.040000     12.000000
 -0.200000 -0.360000  0.040000     12.000000
 -0.160000 -0.360000  0.040000     12.000000
 -0.120000 -0.360000  0.040000     12.000000
 -0.080000 -0.360000  0.040000     12.000000
 -0.320000 -0.320000  0.040000      6.000000
 -0.280000 -0.320000  0.040000     12.000000
 -0.240000 -0.320000  0.040000     12.000000
 -0.200000 -0.320000  0.040000     12.000000
 -0.160000 -0.320000  0.040000     12.000000
 -0.120000 -0.320000  0.040000     12.000000
 -0.080000 -0.320000  0.040000     12.000000
 -0.280000 -0.280000  0.040000      6.000000
 -0.240000 -0.280000  0.040000     12.000000
 -0.200000 -0.280000  0.040000     12.000000
 -0.160000 -0.280000  0.040000     12.000000
 -0.120000 -0.280000  0.040000     12.000000
 -0.080000 -0.280000  0.040000     12.000000
 -0.240000 -0.240000  0.040000      6.000000
 -0.200000 -0.240000  0.040000     12.000000
 -0.160000 -0.240000  0.040000     12.000000
 -0.120000 -0.240000  0.040000     12.000000
 -0.080000 -0.240000  0.040000     12.000000
 -0.200000 -0.200000  0.040000      6.000000
 -0.160000 -0.200000  0.040000     12.000000
 -0.120000 -0.200000  0.040000     12.000000
 -0.080000 -0.200000  0.040000     12.000000
 -0.160000 -0.160000  0.040000      6.000000
 -0.120000 -0.160000  0.040000     12.000000
 -0.080000 -0.160000  0.040000     12.000000
 -0.120000 -0.120000  0.040000      6.000000
 -0.080000 -0.120000  0.040000     12.000000
 -0.080000 -0.080000  0.040000      6.000000
  0.080000  0.080000  0.080000      2.000000
  0.120000  0.080000  0.080000      6.000000
  0.160000  0.080000  0.080000      6.000000
  0.200000  0.080000  0.080000      6.000000
  0.240000  0.080000  0.080000      6.000000
  0.280000  0.080000  0.080000      6.000000
  0.320000  0.080000  0.080000      6.000000
  0.360000  0.080000  0.080000      6.000000
  0.400000  0.080000  0.080000      6.000000
  0.440000  0.080000  0.080000      6.000000
  0.480000  0.080000  0.080000      6.000000
 -0.480000  0.080000  0.080000      6.000000
 -0.440000  0.080000  0.080000      6.000000
 -0.400000  0.080000  0.080000      6.000000
 -0.360000  0.080000  0.080000      6.000000
 -0.320000  0.080000  0.080000      6.000000
 -0.280000  0.080000  0.080000      6.000000
 -0.240000  0.080000  0.080000      6.000000
 -0.200000  0.080000  0.080000      6.000000
 -0.160000  0.080000  0.080000      6.000000
 -0.120000  0.080000  0.080000      6.000000
 -0.080000  0.080000  0.080000      6.000000
  0.120000  0.120000  0.080000      6.000000
  0.160000  0.120000  0.080000     12.000000
  0.200000  0.120000  0.080000     12.000000
  0.240000  0.120000  0.080000     12.000000
  0.280000  0.120000  0.080000     12.000000
  0.320000  0.120000  0.080000     12.000000
  0.360000  0.120000  0.080000     12.000000
  0.400000  0.120000  0.080000     12.000000
  0.440000  0.120000  0.080000     12.000000
  0.480000  0.120000  0.080000     12.000000
 -0.480000  0.120000  0.080000     12.000000
 -0.440000  0.120000  0.080000     12.000000
 -0.400000  0.120000  0.080000     12.000000
 -0.360000  0.120000  0.080000     12.000000
 -0.320000  0.120000  0.080000     12.000000
 -0.280000  0.120000  0.080000     12.000000
 -0.240000  0.120000  0.080000     12.000000
 -0.200000  0.120000  0.080000     12.000000
 -0.160000  0.120000  0.080000     12.000000
 -0.120000  0.120000  0.080000     12.000000
 -0.080000  0.120000  0.080000     12.000000
  0.160000  0.160000  0.080000      6.000000
  0.200000  0.160000  0.080000     12.000000
  0.240000  0.160000  0.080000     12.000000
  0.280000  0.160000  0.080000     12.000000
  0.320000  0.160000  0.080000     12.000000
  0.360000  0.160000  0.080000     12.000000
  0.400000  0.160000  0.080000     12.000000
  0.440000  0.160000  0.080000     12.000000
  0.480000  0.160000  0.080000     12.000000
 -0.480000  0.160000  0.080000     12.000000
 -0.440000  0.160000  0.080000     12.000000
 -0.400000  0.160000  0.080000     12.000000
 -0.360000  0.160000  0.080000     12.000000
 -0.320000  0.160000  0.080000     12.000000
 -0.280000  0.160000  0.080000     12.000000
 -0.240000  0.160000  0.080000     12.000000
 -0.200000  0.160000  0.080000     12.000000
 -0.160000  0.160000  0.080000     12.000000
 -0.120000  0.160000  0.080000     12.000000
 -0.080000  0.160000  0.080000     12.000000
  0.200000  0.200000  0.080000      6.000000
  0.240000  0.200000  0.080000     12.000000
  0.280000  0.200000  0.080000     12.000000
  0.320000  0.200000  0.080000     12.000000
  0.360000  0.200000  0.080000     12.000000
  0.400000  0.200000  0.080000     12.000000
  0.440000  0.200000  0.080000     12.000000
  0.480000  0.200000  0.080000     12.000000
 -0.480000  0.200000  0.080000     12.000000
 -0.440000  0.200000  0.080000     12.000000
 -0.400000  0.200000  0.080000     12.000000
 -0.360000  0.200000  0.080000     12.000000
 -0.320000  0.200000  0.080000     12.000000
 -0.280000  0.200000  0.080000     12.000000
 -0.240000  0.200000  0.080000     12.000000
 -0.200000  0.200000  0.080000     12.000000
 -0.160000  0.200000  0.080000     12.000000
 -0.120000  0.200000  0.080000     12.000000
 -0.080000  0.200000  0.080000     12.000000
  0.240000  0.240000  0.080000      6.000000
  0.280000  0.240000  0.080000     12.000000
  0.320000  0.240000  0.080000     12.000000
  0.360000  0.240000  0.080000     12.000000
  0.400000  0.240000  0.080000     12.000000
  0.440000  0.240000  0.080000     12.000000
  0.480000  0.240000  0.080000     12.000000
 -0.480000  0.240000  0.080000     12.000000
 -0.440000  0.240000  0.080000     12.000000
 -0.400000  0.240000  0.080000     12.000000
 -0.360000  0.240000  0.080000     12.000000
 -0.320000  0.240000  0.080000     12.000000
 -0.280000  0.240000  0.080000     12.000000
 -0.240000  0.240000  0.080000     12.000000
 -0.200000  0.240000  0.080000     12.000000
 -0.160000  0.240000  0.080000     12.000000
 -0.120000  0.240000  0.080000     12.000000
 -0.080000  0.240000  0.080000     12.000000
  0.280000  0.280000  0.080000      6.000000
  0.320000  0.280000  0.080000     12.000000
  0.360000  0.280000  0.080000     12.000000
  0.400000  0.280000  0.080000     12.000000
  0.440000  0.280000  0.080000     12.000000
  0.480000  0.280000  0.080000     12.000000
 -0.480000  0.280000  0.080000     12.000000
 -0.440000  0.280000  0.080000     12.000000
 -0.400000  0.280000  0.080000     12.000000
 -0.360000  0.280000  0.080000     12.000000
 -0.320000  0.280000  0.080000     12.000000
 -0.280000  0.280000  0.080000     12.000000
 -0.240000  0.280000  0.080000     12.000000
 -0.200000  0.280000  0.080000     12.000000
 -0.160000  0.280000  0.080000     12.000000
 -0.120000  0.280000  0.080000     12.000000
 -0.080000  0.280000  0.080000     12.000000
  0.320000  0.320000  0.080000      6.000000
  0.360000  0.320000  0.080000     12.000000
  0.400000  0.320000  0.080000     12.000000
  0.440000  0.320000  0.080000     12.000000
  0.480000  0.320000  0.080000     12.000000
 -0.480000  0.320000  0.080000     12.000000
 -0.440000  0.320000  0.080000     12.000000
 -0.400000  0.320000  0.080000     12.000000
 -0.360000  0.320000  0.080000     12.000000
 -0.320000  0.320000  0.080000     12.000000
 -0.280000  0.320000  0.080000     12.000000
 -0.240000  0.320000  0.080000     12.000000
 -0.200000  0.320000  0.080000     12.000000
 -0.160000  0.320000  0.080000     12.000000
 -0.120000  0.320000  0.080000     12.000000
 -0.080000  0.320000  0.080000     12.000000
  0.360000  0.360000  0.080000      6.000000
  0.400000  0.360000  0.080000     12.000000
  0.440000  0.360000  0.080000     12.000000
  0.480000  0.360000  0.080000     12.000000
 -0.480000  0.360000  0.080000     12.000000
 -0.440000  0.360000  0.080000     12.000000
 -0.400000  0.360000  0.080000     12.000000
 -0.360000  0.360000  0.080000     12.000000
 -0.320000  0.360000  0.080000     12.000000
 -0.280000  0.360000  0.080000     12.000000
 -0.240000  0.360000  0.080000     12.000000
 -0.200000  0.360000  0.080000     12.000000
 -0.160000  0.360000  0.080000     12.000000
 -0.120000  0.360000  0.080000     12.000000
 -0.080000  0.360000  0.080000     12.000000
  0.400000  0.400000  0.080000      6.000000
  0.440000  0.400000  0.080000     12.000000
  0.480000  0.400000  0.080000     12.000000
 -0.480000  0.400000  0.080000     12.000000
 -0.440000  0.400000  0.080000     12.000000
 -0.400000  0.400000  0.080000     12.000000
 -0.360000  0.400000  0.080000     12.000000
 -0.320000  0.400000  0.080000     12.000000
 -0.280000  0.400000  0.080000     12.000000
 -0.240000  0.400000  0.080000     12.000000
 -0.200000  0.400000  0.080000     12.000000
 -0.160000  0.400000  0.080000     12.000000
 -0.120000  0.400000  0.080000     12.000000
 -0.080000  0.400000  0.080000     12.000000
  0.440000  0.440000  0.080000      6.000000
  0.480000  0.440000  0.080000     12.000000
 -0.480000  0.440000  0.080000     12.000000
 -0.440000  0.440000  0.080000     12.000000
 -0.400000  0.440000  0.080000     12.000000
 -0.360000  0.440000  0.080000     12.000000
 -0.320000  0.440000  0.080000     12.000000
 -0.280000  0.440000  0.080000     12.000000
 -0.240000  0.440000  0.080000     12.000000
 -0.200000  0.440000  0.080000     12.000000
 -0.160000  0.440000  0.080000     12.000000
 -0.120000  0.440000  0.080000     12.000000
 -0.080000  0.440000  0.080000     12.000000
  0.480000  0.480000  0.080000      6.000000
 -0.480000  0.480000  0.080000     12.000000
 -0.440000  0.480000  0.080000     12.000000
 -0.400000  0.480000  0.080000     12.000000
 -0.360000  0.480000  0.080000     12.000000
 -0.320000  0.480000  0.080000     12.000000
 -0.280000  0.480000  0.080000     12.000000
 -0.240000  0.480000  0.080000     12.000000
 -0.200000  0.480000  0.080000     12.000000
 -0.160000  0.480000  0.080000     12.000000
 -0.120000  0.480000  0.080000     12.000000
 -0.080000  0.480000  0.080000     12.000000
 -0.480000 -0.480000  0.080000      6.000000
 -0.440000 -0.480000  0.080000     12.000000
 -0.400000 -0.480000  0.080000     12.000000
 -0.360000 -0.480000  0.080000     12.000000
 -0.320000 -0.480000  0.080000     12.000000
 -0.280000 -0.480000  0.080000     12.000000
 -0.240000 -0.480000  0.080000     12.000000
 -0.200000 -0.480000  0.080000     12.000000
 -0.160000 -0.480000  0.080000     12.000000
 -0.120000 -0.480000  0.080000     12.000000
 -0.440000 -0.440000  0.080000      6.000000
 -0.400000 -0.440000  0.080000     12.000000
 -0.360000 -0.440000  0.080000     12.000000
 -0.320000 -0.440000  0.080000     12.000000
 -0.280000 -0.440000  0.080000     12.000000
 -0.240000 -0.440000  0.080000     12.000000
 -0.200000 -0.440000  0.080000     12.000000
 -0.160000 -0.440000  0.080000     12.000000
 -0.120000 -0.440000  0.080000     12.000000
 -0.400000 -0.400000  0.080000      6.000000
 -0.360000 -0.400000  0.080000     12.000000
 -0.320000 -0.400000  0.080000     12.000000
 -0.280000 -0.400000  0.080000     12.000000
 -0.240000 -0.400000  0.080000     12.000000
 -0.200000 -0.400000  0.080000     12.000000
 -0.160000 -0.400000  0.080000     12.000000
 -0.120000 -0.400000  0.080000     12.000000
 -0.360000 -0.360000  0.080000      6.000000
 -0.320000 -0.360000  0.080000     12.000000
 -0.280000 -0.360000  0.080000     12.000000
 -0.240000 -0.360000  0.080000     12.000000
 -0.200000 -0.360000  0.080000     12.000000
 -0.160000 -0.360000  0.080000     12.000000
 -0.120000 -0.360000  0.080000     12.000000
 -0.320000 -0.320000  0.080000      6.000000
 -0.280000 -0.320000  0.080000     12.000000
 -0.240000 -0.320000  0.080000     12.000000
 -0.200000 -0.320000  0.080000     12.000000
 -0.160000 -0.320000  0.080000     12.000000
 -0.120000 -0.320000  0.080000     12.000000
 -0.280000 -0.280000  0.080000      6.000000
 -0.240000 -0.280000  0.080000     12.000000
 -0.200000 -0.280000  0.080000     12.000000
 -0.160000 -0.280000  0.080000     12.000000
 -0.120000 -0.280000  0.080000     12.000000
 -0.240000 -0.240000  0.080000      6.000000
 -0.200000 -0.240000  0.080000     12.000000
 -0.160000 -0.240000  0.080000     12.000000
 -0.120000 -0.240000  0.080000     12.000000
 -0.200000 -0.200000  0.080000      6.000000
 -0.160000 -0.200000  0.080000     12.000000
 -0.120000 -0.200000  0.080000     12.000000
 -0.160000 -0.160000  0.080000      6.000000
 -0.120000 -0.160000  0.080000     12.000000
 -0.120000 -0.120000  0.080000      6.000000
  0.120000  0.120000  0.120000      2.000000
  0.160000  0.120000  0.120000      6.000000
  0.200000  0.120000  0.120000      6.000000
  0.240000  0.120000  0.120000      6.000000
  0.280000  0.120000  0.120000      6.000000
  0.320000  0.120000  0.120000      6.000000
  0.360000  0.120000  0.120000      6.000000
  0.400000  0.120000  0.120000      6.000000
  0.440000  0.120000  0.120000      6.000000
  0.480000  0.120000  0.120000      6.000000
 -0.480000  0.120000  0.120000      6.000000
 -0.440000  0.120000  0.120000      6.000000
 -0.400000  0.120000  0.120000      6.000000
 -0.360000  0.120000  0.120000      6.000000
 -0.320000  0.120000  0.120000      6.000000
 -0.280000  0.120000  0.120000      6.000000
 -0.240000  0.120000  0.120000      6.000000
 -0.200000  0.120000  0.120000      6.000000
 -0.160000  0.120000  0.120000      6.000000
 -0.120000  0.120000  0.120000      6.000000
  0.160000  0.160000  0.120000      6.000000
  0.200000  0.160000  0.120000     12.000000
  0.240000  0.160000  0.120000     12.000000
  0.280000  0.160000  0.120000     12.000000
  0.320000  0.160000  0.120000     12.000000
  0.360000  0.160000  0.120000     12.000000
  0.400000  0.160000  0.120000     12.000000
  0.440000  0.160000  0.120000     12.000000
  0.480000  0.160000  0.120000     12.000000
 -0.480000  0.160000  0.120000     12.000000
 -0.440000  0.160000  0.120000     12.000000
 -0.400000  0.160000  0.120000     12.000000
 -0.360000  0.160000  0.120000     12.000000
 -0.320000  0.160000  0.120000     12.000000
 -0.280000  0.160000  0.120000     12.000000
 -0.240000  0.160000  0.120000     12.000000
 -0.200000  0.160000  0.120000     12.000000
 -0.160000  0.160000  0.120000     12.000000
 -0.120000  0.160000  0.120000     12.000000
  0.200000  0.200000  0.120000      6.000000
  0.240000  0.200000  0.120000     12.000000
  0.280000  0.200000  0.120000     12.000000
  0.320000  0.200000  0.120000     12.000000
  0.360000  0.200000  0.120000     12.000000
  0.400000  0.200000  0.120000     12.000000
  0.440000  0.200000  0.120000     12.000000
  0.480000  0.200000  0.120000     12.000000
 -0.480000  0.200000  0.120000     12.000000
 -0.440000  0.200000  0.120000     12.000000
 -0.400000  0.200000  0.120000     12.000000
 -0.360000  0.200000  0.120000     12.000000
 -0.320000  0.200000  0.120000     12.000000
 -0.280000  0.200000  0.120000     12.000000
 -0.240000  0.200000  0.120000     12.000000
 -0.200000  0.200000  0.120000     12.000000
 -0.160000  0.200000  0.120000     12.000000
 -0.120000  0.200000  0.120000     12.000000
  0.240000  0.240000  0.120000      6.000000
  0.280000  0.240000  0.120000     12.000000
  0.320000  0.240000  0.120000     12.000000
  0.360000  0.240000  0.120000     12.000000
  0.400000  0.240000  0.120000     12.000000
  0.440000  0.240000  0.120000     12.000000
  0.480000  0.240000  0.120000     12.000000
 -0.480000  0.240000  0.120000     12.000000
 -0.440000  0.240000  0.120000     12.000000
 -0.400000  0.240000  0.120000     12.000000
 -0.360000  0.240000  0.120000     12.000000
 -0.320000  0.240000  0.120000     12.000000
 -0.280000  0.240000  0.120000     12.000000
 -0.240000  0.240000  0.120000     12.000000
 -0.200000  0.240000  0.120000     12.000000
 -0.160000  0.240000  0.120000     12.000000
 -0.120000  0.240000  0.120000     12.000000
  0.280000  0.280000  0.120000      6.000000
  0.320000  0.280000  0.120000     12.000000
  0.360000  0.280000  0.120000     12.000000
  0.400000  0.280000  0.120000     12.000000
  0.440000  0.280000  0.120000     12.000000
  0.480000  0.280000  0.120000     12.000000
 -0.480000  0.280000  0.120000     12.000000
 -0.440000  0.280000  0.120000     12.000000
 -0.400000  0.280000  0.120000     12.000000
 -0.360000  0.280000  0.120000     12.000000
 -0.320000  0.280000  0.120000     12.000000
 -0.280000  0.280000  0.120000     12.000000
 -0.240000  0.280000  0.120000     12.000000
 -0.200000  0.280000  0.120000     12.000000
 -0.160000  0.280000  0.120000     12.000000
 -0.120000  0.280000  0.120000     12.000000
  0.320000  0.320000  0.120000      6.000000
  0.360000  0.320000  0.120000     12.000000
  0.400000  0.320000  0.120000     12.000000
  0.440000  0.320000  0.120000     12.000000
  0.480000  0.320000  0.120000     12.000000
 -0.480000  0.320000  0.120000     12.000000
 -0.440000  0.320000  0.120000     12.000000
 -0.400000  0.320000  0.120000     12.000000
 -0.360000  0.320000  0.120000     12.000000
 -0.320000  0.320000  0.120000     12.000000
 -0.280000  0.320000  0.120000     12.000000
 -0.240000  0.320000  0.120000     12.000000
 -0.200000  0.320000  0.120000     12.000000
 -0.160000  0.320000  0.120000     12.000000
 -0.120000  0.320000  0.120000     12.000000
  0.360000  0.360000  0.120000      6.000000
  0.400000  0.360000  0.120000     12.000000
  0.440000  0.360000  0.120000     12.000000
  0.480000  0.360000  0.120000     12.000000
 -0.480000  0.360000  0.120000     12.000000
 -0.440000  0.360000  0.120000     12.000000
 -0.400000  0.360000  0.120000     12.000000
 -0.360000  0.360000  0.120000     12.000000
 -0.320000  0.360000  0.120000     12.000000
 -0.280000  0.360000  0.120000     12.000000
 -0.240000  0.360000  0.120000     12.000000
 -0.200000  0.360000  0.120000     12.000000
 -0.160000  0.360000  0.120000     12.000000
 -0.120000  0.360000  0.120000     12.000000
  0.400000  0.400000  0.120000      6.000000
  0.440000  0.400000  0.120000     12.000000
  0.480000  0.400000  0.120000     12.000000
 -0.480000  0.400000  0.120000     12.000000
 -0.440000  0.400000  0.120000     12.000000
 -0.400000  0.400000  0.120000     12.000000
 -0.360000  0.400000  0.120000     12.000000
 -0.320000  0.400000  0.120000     12.000000
 -0.280000  0.400000  0.120000     12.000000
 -0.240000  0.400000  0.120000     12.000000
 -0.200000  0.400000  0.120000     12.000000
 -0.160000  0.400000  0.120000     12.000000
 -0.120000  0.400000  0.120000     12.000000
  0.440000  0.440000  0.120000      6.000000
  0.480000  0.440000  0.120000     12.000000
 -0.480000  0.440000  0.120000     12.000000
 -0.440000  0.440000  0.120000     12.000000
 -0.400000  0.440000  0.120000     12.000000
 -0.360000  0.440000  0.120000     12.000000
 -0.320000  0.440000  0.120000     12.000000
 -0.280000  0.440000  0.120000     12.000000
 -0.240000  0.440000  0.120000     12.000000
 -0.200000  0.440000  0.120000     12.000000
 -0.160000  0.440000  0.120000     12.000000
 -0.120000  0.440000  0.120000     12.000000
  0.480000  0.480000  0.120000      6.000000
 -0.480000  0.480000  0.120000     12.000000
 -0.440000  0.480000  0.120000     12.000000
 -0.400000  0.480000  0.120000     12.000000
 -0.360000  0.480000  0.120000     12.000000
 -0.320000  0.480000  0.120000     12.000000
 -0.280000  0.480000  0.120000     12.000000
 -0.240000  0.480000  0.120000     12.000000
 -0.200000  0.480000  0.120000     12.000000
 -0.160000  0.480000  0.120000     12.000000
 -0.120000  0.480000  0.120000     12.000000
 -0.480000 -0.480000  0.120000      6.000000
 -0.440000 -0.480000  0.120000     12.000000
 -0.400000 -0.480000  0.120000     12.000000
 -0.360000 -0.480000  0.120000     12.000000
 -0.320000 -0.480000  0.120000     12.000000
 -0.280000 -0.480000  0.120000     12.000000
 -0.240000 -0.480000  0.120000     12.000000
 -0.200000 -0.480000  0.120000     12.000000
 -0.160000 -0.480000  0.120000     12.000000
 -0.440000 -0.440000  0.120000      6.000000
 -0.400000 -0.440000  0.120000     12.000000
 -0.360000 -0.440000  0.120000     12.000000
 -0.320000 -0.440000  0.120000     12.000000
 -0.280000 -0.440000  0.120000     12.000000
 -0.240000 -0.440000  0.120000     12.000000
 -0.200000 -0.440000  0.120000     12.000000
 -0.160000 -0.440000  0.120000     12.000000
 -0.400000 -0.400000  0.120000      6.000000
 -0.360000 -0.400000  0.120000     12.000000
 -0.320000 -0.400000  0.120000     12.000000
 -0.280000 -0.400000  0.120000     12.000000
 -0.240000 -0.400000  0.120000     12.000000
 -0.200000 -0.400000  0.120000     12.000000
 -0.160000 -0.400000  0.120000     12.000000
 -0.360000 -0.360000  0.120000      6.000000
 -0.320000 -0.360000  0.120000     12.000000
 -0.280000 -0.360000  0.120000     12.000000
 -0.240000 -0.360000  0.120000     12.000000
 -0.200000 -0.360000  0.120000     12.000000
 -0.160000 -0.360000  0.120000     12.000000
 -0.320000 -0.320000  0.120000      6.000000
 -0.280000 -0.320000  0.120000     12.000000
 -0.240000 -0.320000  0.120000     12.000000
 -0.200000 -0.320000  0.120000     12.000000
 -0.160000 -0.320000  0.120000     12.000000
 -0.280000 -0.280000  0.120000      6.000000
 -0.240000 -0.280000  0.120000     12.000000
 -0.200000 -0.280000  0.120000     12.000000
 -0.160000 -0.280000  0.120000     12.000000
 -0.240000 -0.240000  0.120000      6.000000
 -0.200000 -0.240000  0.120000     12.000000
 -0.160000 -0.240000  0.120000     12.000000
 -0.200000 -0.200000  0.120000      6.000000
 -0.160000 -0.200000  0.120000     12.000000
 -0.160000 -0.160000  0.120000      6.000000
  0.160000  0.160000  0.160000      2.000000
  0.200000  0.160000  0.160000      6.000000
  0.240000  0.160000  0.160000      6.000000
  0.280000  0.160000  0.160000      6.000000
  0.320000  0.160000  0.160000      6.000000
  0.360000  0.160000  0.160000      6.000000
  0.400000  0.160000  0.160000      6.000000
  0.440000  0.160000  0.160000      6.000000
  0.480000  0.160000  0.160000      6.000000
 -0.480000  0.160000  0.160000      6.000000
 -0.440000  0.160000  0.160000      6.000000
 -0.400000  0.160000  0.160000      6.000000
 -0.360000  0.160000  0.160000      6.000000
 -0.320000  0.160000  0.160000      6.000000
 -0.280000  0.160000  0.160000      6.000000
 -0.240000  0.160000  0.160000      6.000000
 -0.200000  0.160000  0.160000      6.000000
 -0.160000  0.160000  0.160000      6.000000
  0.200000  0.200000  0.160000      6.000000
  0.240000  0.200000  0.160000     12.000000
  0.280000  0.200000  0.160000     12.000000
  0.320000  0.200000  0.160000     12.000000
  0.360000  0.200000  0.160000     12.000000
  0.400000  0.200000  0.160000     12.000000
  0.440000  0.200000  0.160000     12.000000
  0.480000  0.200000  0.160000     12.000000
 -0.480000  0.200000  0.160000     12.000000
 -0.440000  0.200000  0.160000     12.000000
 -0.400000  0.200000  0.160000     12.000000
 -0.360000  0.200000  0.160000     12.000000
 -0.320000  0.200000  0.160000     12.000000
 -0.280000  0.200000  0.160000     12.000000
 -0.240000  0.200000  0.160000     12.000000
 -0.200000  0.200000  0.160000     12.000000
 -0.160000  0.200000  0.160000     12.000000
  0.240000  0.240000  0.160000      6.000000
  0.280000  0.240000  0.160000     12.000000
  0.320000  0.240000  0.160000     12.000000
  0.360000  0.240000  0.160000     12.000000
  0.400000  0.240000  0.160000     12.000000
  0.440000  0.240000  0.160000     12.000000
  0.480000  0.240000  0.160000     12.000000
 -0.480000  0.240000  0.160000     12.000000
 -0.440000  0.240000  0.160000     12.000000
 -0.400000  0.240000  0.160000     12.000000
 -0.360000  0.240000  0.160000     12.000000
 -0.320000  0.240000  0.160000     12.000000
 -0.280000  0.240000  0.160000     12.000000
 -0.240000  0.240000  0.160000     12.000000
 -0.200000  0.240000  0.160000     12.000000
 -0.160000  0.240000  0.160000     12.000000
  0.280000  0.280000  0.160000      6.000000
  0.320000  0.280000  0.160000     12.000000
  0.360000  0.280000  0.160000     12.000000
  0.400000  0.280000  0.160000     12.000000
  0.440000  0.280000  0.160000     12.000000
  0.480000  0.280000  0.160000     12.000000
 -0.480000  0.280000  0.160000     12.000000
 -0.440000  0.280000  0.160000     12.000000
 -0.400000  0.280000  0.160000     12.000000
 -0.360000  0.280000  0.160000     12.000000
 -0.320000  0.280000  0.160000     12.000000
 -0.280000  0.280000  0.160000     12.000000
 -0.240000  0.280000  0.160000     12.000000
 -0.200000  0.280000  0.160000     12.000000
 -0.160000  0.280000  0.160000     12.000000
  0.320000  0.320000  0.160000      6.000000
  0.360000  0.320000  0.160000     12.000000
  0.400000  0.320000  0.160000     12.000000
  0.440000  0.320000  0.160000     12.000000
  0.480000  0.320000  0.160000     12.000000
 -0.480000  0.320000  0.160000     12.000000
 -0.440000  0.320000  0.160000     12.000000
 -0.400000  0.320000  0.160000     12.000000
 -0.360000  0.320000  0.160000     12.000000
 -0.320000  0.320000  0.160000     12.000000
 -0.280000  0.320000  0.160000     12.000000
 -0.240000  0.320000  0.160000     12.000000
 -0.200000  0.320000  0.160000     12.000000
 -0.160000  0.320000  0.160000     12.000000
  0.360000  0.360000  0.160000      6.000000
  0.400000  0.360000  0.160000     12.000000
  0.440000  0.360000  0.160000     12.000000
  0.480000  0.360000  0.160000     12.000000
 -0.480000  0.360000  0.160000     12.000000
 -0.440000  0.360000  0.160000     12.000000
 -0.400000  0.360000  0.160000     12.000000
 -0.360000  0.360000  0.160000     12.000000
 -0.320000  0.360000  0.160000     12.000000
 -0.280000  0.360000  0.160000     12.000000
 -0.240000  0.360000  0.160000     12.000000
 -0.200000  0.360000  0.160000     12.000000
 -0.160000  0.360000  0.160000     12.000000
  0.400000  0.400000  0.160000      6.000000
  0.440000  0.400000  0.160000     12.000000
  0.480000  0.400000  0.160000     12.000000
 -0.480000  0.400000  0.160000     12.000000
 -0.440000  0.400000  0.160000     12.000000
 -0.400000  0.400000  0.160000     12.000000
 -0.360000  0.400000  0.160000     12.000000
 -0.320000  0.400000  0.160000     12.000000
 -0.280000  0.400000  0.160000     12.000000
 -0.240000  0.400000  0.160000     12.000000
 -0.200000  0.400000  0.160000     12.000000
 -0.160000  0.400000  0.160000     12.000000
  0.440000  0.440000  0.160000      6.000000
  0.480000  0.440000  0.160000     12.000000
 -0.480000  0.440000  0.160000     12.000000
 -0.440000  0.440000  0.160000     12.000000
 -0.400000  0.440000  0.160000     12.000000
 -0.360000  0.440000  0.160000     12.000000
 -0.320000  0.440000  0.160000     12.000000
 -0.280000  0.440000  0.160000     12.000000
 -0.240000  0.440000  0.160000     12.000000
 -0.200000  0.440000  0.160000     12.000000
 -0.160000  0.440000  0.160000     12.000000
  0.480000  0.480000  0.160000      6.000000
 -0.480000  0.480000  0.160000     12.000000
 -0.440000  0.480000  0.160000     12.000000
 -0.400000  0.480000  0.160000     12.000000
 -0.360000  0.480000  0.160000     12.000000
 -0.320000  0.480000  0.160000     12.000000
 -0.280000  0.480000  0.160000     12.000000
 -0.240000  0.480000  0.160000     12.000000
 -0.200000  0.480000  0.160000     12.000000
 -0.160000  0.480000  0.160000     12.000000
 -0.480000 -0.480000  0.160000      6.000000
 -0.440000 -0.480000  0.160000     12.000000
 -0.400000 -0.480000  0.160000     12.000000
 -0.360000 -0.480000  0.160000     12.000000
 -0.320000 -0.480000  0.160000     12.000000
 -0.280000 -0.480000  0.160000     12.000000
 -0.240000 -0.480000  0.160000     12.000000
 -0.200000 -0.480000  0.160000     12.000000
 -0.440000 -0.440000  0.160000      6.000000
 -0.400000 -0.440000  0.160000     12.000000
 -0.360000 -0.440000  0.160000     12.000000
 -0.320000 -0.440000  0.160000     12.000000
 -0.280000 -0.440000  0.160000     12.000000
 -0.240000 -0.440000  0.160000     12.000000
 -0.200000 -0.440000  0.160000     12.000000
 -0.400000 -0.400000  0.160000      6.000000
 -0.360000 -0.400000  0.160000     12.000000
 -0.320000 -0.400000  0.160000     12.000000
 -0.280000 -0.400000  0.160000     12.000000
 -0.240000 -0.400000  0.160000     12.000000
 -0.200000 -0.400000  0.160000     12.000000
 -0.360000 -0.360000  0.160000      6.000000
 -0.320000 -0.360000  0.160000     12.000000
 -0.280000 -0.360000  0.160000     12.000000
 -0.240000 -0.360000  0.160000     12.000000
 -0.200000 -0.360000  0.160000     12.000000
 -0.320000 -0.320000  0.160000      6.000000
 -0.280000 -0.320000  0.160000     12.000000
 -0.240000 -0.320000  0.160000     12.000000
 -0.200000 -0.320000  0.160000     12.000000
 -0.280000 -0.280000  0.160000      6.000000
 -0.240000 -0.280000  0.160000     12.000000
 -0.200000 -0.280000  0.160000     12.000000
 -0.240000 -0.240000  0.160000      6.000000
 -0.200000 -0.240000  0.160000     12.000000
 -0.200000 -0.200000  0.160000      6.000000
  0.200000  0.200000  0.200000      2.000000
  0.240000  0.200000  0.200000      6.000000
  0.280000  0.200000  0.200000      6.000000
  0.320000  0.200000  0.200000      6.000000
  0.360000  0.200000  0.200000      6.000000
  0.400000  0.200000  0.200000      6.000000
  0.440000  0.200000  0.200000      6.000000
  0.480000  0.200000  0.200000      6.000000
 -0.480000  0.200000  0.200000      6.000000
 -0.440000  0.200000  0.200000      6.000000
 -0.400000  0.200000  0.200000      6.000000
 -0.360000  0.200000  0.200000      6.000000
 -0.320000  0.200000  0.200000      6.000000
 -0.280000  0.200000  0.200000      6.000000
 -0.240000  0.200000  0.200000      6.000000
 -0.200000  0.200000  0.200000      6.000000
  0.240000  0.240000  0.200000      6.000000
  0.280000  0.240000  0.200000     12.000000
  0.320000  0.240000  0.200000     12.000000
  0.360000  0.240000  0.200000     12.000000
  0.400000  0.240000  0.200000     12.000000
  0.440000  0.240000  0.200000     12.000000
  0.480000  0.240000  0.200000     12.000000
 -0.480000  0.240000  0.200000     12.000000
 -0.440000  0.240000  0.200000     12.000000
 -0.400000  0.240000  0.200000     12.000000
 -0.360000  0.240000  0.200000     12.000000
 -0.320000  0.240000  0.200000     12.000000
 -0.280000  0.240000  0.200000     12.000000
 -0.240000  0.240000  0.200000     12.000000
 -0.200000  0.240000  0.200000     12.000000
  0.280000  0.280000  0.200000      6.000000
  0.320000  0.280000  0.200000     12.000000
  0.360000  0.280000  0.200000     12.000000
  0.400000  0.280000  0.200000     12.000000
  0.440000  0.280000  0.200000     12.000000
  0.480000  0.280000  0.200000     12.000000
 -0.480000  0.280000  0.200000     12.000000
 -0.440000  0.280000  0.200000     12.000000
 -0.400000  0.280000  0.200000     12.000000
 -0.360000  0.280000  0.200000     12.000000
 -0.320000  0.280000  0.200000     12.000000
 -0.280000  0.280000  0.200000     12.000000
 -0.240000  0.280000  0.200000     12.000000
 -0.200000  0.280000  0.200000     12.000000
  0.320000  0.320000  0.200000      6.000000
  0.360000  0.320000  0.200000     12.000000
  0.400000  0.320000  0.200000     12.000000
  0.440000  0.320000  0.200000     12.000000
  0.480000  0.320000  0.200000     12.000000
 -0.480000  0.320000  0.200000     12.000000
 -0.440000  0.320000  0.200000     12.000000
 -0.400000  0.320000  0.200000     12.000000
 -0.360000  0.320000  0.200000     12.000000
 -0.320000  0.320000  0.200000     12.000000
 -0.280000  0.320000  0.200000     12.000000
 -0.240000  0.320000  0.200000     12.000000
 -0.200000  0.320000  0.200000     12.000000
  0.360000  0.360000  0.200000      6.000000
  0.400000  0.360000  0.200000     12.000000
  0.440000  0.360000  0.200000     12.000000
  0.480000  0.360000  0.200000     12.000000
 -0.480000  0.360000  0.200000     12.000000
 -0.440000  0.360000  0.200000     12.000000
 -0.400000  0.360000  0.200000     12.000000
 -0.360000  0.360000  0.200000     12.000000
 -0.320000  0.360000  0.200000     12.000000
 -0.280000  0.360000  0.200000     12.000000
 -0.240000  0.360000  0.200000     12.000000
 -0.200000  0.360000  0.200000     12.000000
  0.400000  0.400000  0.200000      6.000000
  0.440000  0.400000  0.200000     12.000000
  0.480000  0.400000  0.200000     12.000000
 -0.480000  0.400000  0.200000     12.000000
 -0.440000  0.400000  0.200000     12.000000
 -0.400000  0.400000  0.200000     12.000000
 -0.360000  0.400000  0.200000     12.000000
 -0.320000  0.400000  0.200000     12.000000
 -0.280000  0.400000  0.200000     12.000000
 -0.240000  0.400000  0.200000     12.000000
 -0.200000  0.400000  0.200000     12.000000
  0.440000  0.440000  0.200000      6.000000
  0.480000  0.440000  0.200000     12.000000
 -0.480000  0.440000  0.200000     12.000000
 -0.440000  0.440000  0.200000     12.000000
 -0.400000  0.440000  0.200000     12.000000
 -0.360000  0.440000  0.200000     12.000000
 -0.320000  0.440000  0.200000     12.000000
 -0.280000  0.440000  0.200000     12.000000
 -0.240000  0.440000  0.200000     12.000000
 -0.200000  0.440000  0.200000     12.000000
  0.480000  0.480000  0.200000      6.000000
 -0.480000  0.480000  0.200000     12.000000
 -0.440000  0.480000  0.200000     12.000000
 -0.400000  0.480000  0.200000     12.000000
 -0.360000  0.480000  0.200000     12.000000
 -0.320000  0.480000  0.200000     12.000000
 -0.280000  0.480000  0.200000     12.000000
 -0.240000  0.480000  0.200000     12.000000
 -0.200000  0.480000  0.200000     12.000000
 -0.480000 -0.480000  0.200000      6.000000
 -0.440000 -0.480000  0.200000     12.000000
 -0.400000 -0.480000  0.200000     12.000000
 -0.360000 -0.480000  0.200000     12.000000
 -0.320000 -0.480000  0.200000     12.000000
 -0.280000 -0.480000  0.200000     12.000000
 -0.240000 -0.480000  0.200000     12.000000
 -0.440000 -0.440000  0.200000      6.000000
 -0.400000 -0.440000  0.200000     12.000000
 -0.360000 -0.440000  0.200000     12.000000
 -0.320000 -0.440000  0.200000     12.000000
 -0.280000 -0.440000  0.200000     12.000000
 -0.240000 -0.440000  0.200000     12.000000
 -0.400000 -0.400000  0.200000      6.000000
 -0.360000 -0.400000  0.200000     12.000000
 -0.320000 -0.400000  0.200000     12.000000
 -0.280000 -0.400000  0.200000     12.000000
 -0.240000 -0.400000  0.200000     12.000000
 -0.360000 -0.360000  0.200000      6.000000
 -0.320000 -0.360000  0.200000     12.000000
 -0.280000 -0.360000  0.200000     12.000000
 -0.240000 -0.360000  0.200000     12.000000
 -0.320000 -0.320000  0.200000      6.000000
 -0.280000 -0.320000  0.200000     12.000000
 -0.240000 -0.320000  0.200000     12.000000
 -0.280000 -0.280000  0.200000      6.000000
 -0.240000 -0.280000  0.200000     12.000000
 -0.240000 -0.240000  0.200000      6.000000
  0.240000  0.240000  0.240000      2.000000
  0.280000  0.240000  0.240000      6.000000
  0.320000  0.240000  0.240000      6.000000
  0.360000  0.240000  0.240000      6.000000
  0.400000  0.240000  0.240000      6.000000
  0.440000  0.240000  0.240000      6.000000
  0.480000  0.240000  0.240000      6.000000
 -0.480000  0.240000  0.240000      6.000000
 -0.440000  0.240000  0.240000      6.000000
 -0.400000  0.240000  0.240000      6.000000
 -0.360000  0.240000  0.240000      6.000000
 -0.320000  0.240000  0.240000      6.000000
 -0.280000  0.240000  0.240000      6.000000
 -0.240000  0.240000  0.240000      6.000000
  0.280000  0.280000  0.240000      6.000000
  0.320000  0.280000  0.240000     12.000000
  0.360000  0.280000  0.240000     12.000000
  0.400000  0.280000  0.240000     12.000000
  0.440000  0.280000  0.240000     12.000000
  0.480000  0.280000  0.240000     12.000000
 -0.480000  0.280000  0.240000     12.000000
 -0.440000  0.280000  0.240000     12.000000
 -0.400000  0.280000  0.240000     12.000000
 -0.360000  0.280000  0.240000     12.000000
 -0.320000  0.280000  0.240000     12.000000
 -0.280000  0.280000  0.240000     12.000000
 -0.240000  0.280000  0.240000     12.000000
  0.320000  0.320000  0.240000      6.000000
  0.360000  0.320000  0.240000     12.000000
  0.400000  0.320000  0.240000     12.000000
  0.440000  0.320000  0.240000     12.000000
  0.480000  0.320000  0.240000     12.000000
 -0.480000  0.320000  0.240000     12.000000
 -0.440000  0.320000  0.240000     12.000000
 -0.400000  0.320000  0.240000     12.000000
 -0.360000  0.320000  0.240000     12.000000
 -0.320000  0.320000  0.240000     12.000000
 -0.280000  0.320000  0.240000     12.000000
 -0.240000  0.320000  0.240000     12.000000
  0.360000  0.360000  0.240000      6.000000
  0.400000  0.360000  0.240000     12.000000
  0.440000  0.360000  0.240000     12.000000
  0.480000  0.360000  0.240000     12.000000
 -0.480000  0.360000  0.240000     12.000000
 -0.440000  0.360000  0.240000     12.000000
 -0.400000  0.360000  0.240000     12.000000
 -0.360000  0.360000  0.240000     12.000000
 -0.320000  0.360000  0.240000     12.000000
 -0.280000  0.360000  0.240000     12.000000
 -0.240000  0.360000  0.240000     12.000000
  0.400000  0.400000  0.240000      6.000000
  0.440000  0.400000  0.240000     12.000000
  0.480000  0.400000  0.240000     12.000000
 -0.480000  0.400000  0.240000     12.000000
 -0.440000  0.400000  0.240000     12.000000
 -0.400000  0.400000  0.240000     12.000000
 -0.360000  0.400000  0.240000     12.000000
 -0.320000  0.400000  0.240000     12.000000
 -0.280000  0.400000  0.240000     12.000000
 -0.240000  0.400000  0.240000     12.000000
  0.440000  0.440000  0.240000      6.000000
  0.480000  0.440000  0.240000     12.000000
 -0.480000  0.440000  0.240000     12.000000
 -0.440000  0.440000  0.240000     12.000000
 -0.400000  0.440000  0.240000     12.000000
 -0.360000  0.440000  0.240000     12.000000
 -0.320000  0.440000  0.240000     12.000000
 -0.280000  0.440000  0.240000     12.000000
 -0.240000  0.440000  0.240000     12.000000
  0.480000  0.480000  0.240000      6.000000
 -0.480000  0.480000  0.240000     12.000000
 -0.440000  0.480000  0.240000     12.000000
 -0.400000  0.480000  0.240000     12.000000
 -0.360000  0.480000  0.240000     12.000000
 -0.320000  0.480000  0.240000     12.000000
 -0.280000  0.480000  0.240000     12.000000
 -0.240000  0.480000  0.240000     12.000000
 -0.480000 -0.480000  0.240000      6.000000
 -0.440000 -0.480000  0.240000     12.000000
 -0.400000 -0.480000  0.240000     12.000000
 -0.360000 -0.480000  0.240000     12.000000
[...]
     37       8.8844      0.00000
     38       9.0465      0.00000
     39       9.5489      0.00000
     40       9.5740      0.00000

 k-point  1465 :      -0.4800    0.4800    0.4400
  band No.  band energies     occupation 
      1     -11.1020      2.00000
      2     -10.9131      2.00000
      3     -10.8958      2.00000
      4     -10.7274      2.00000
      5     -10.7228      2.00000
      6     -10.4005      2.00000
      7     -10.3680      2.00000
      8     -10.3348      2.00000
      9     -10.2258      2.00000
     10     -10.2211      2.00000
     11      -9.7348      2.00000
     12      -9.1908      2.00000
     13      -8.1739      2.00000
     14      -7.4753      2.00000
     15      -2.1275      2.00000
     16      -1.6427      2.00000
     17      -1.6326      2.00000
     18      -1.2119      2.00000
     19      -1.2003      2.00000
     20      -1.1613      2.00000
     21      -0.1908      2.00000
     22       1.6555      2.00000
     23       1.8969      2.00000
     24       2.0137      2.00000
     25       2.2672      2.00000
     26       2.4571      2.00000
     27       2.8197      2.00000
     28       2.8770      2.00000
     29       3.3315      2.00000
     30       4.1502      2.00000
     31       4.3499      2.00000
     32       5.4725      0.00000
     33       6.1111      0.00000
     34       7.3963      0.00000
     35       7.8095      0.00000
     36       8.5382      0.00000
     37       8.9392      0.00000
     38       9.0355      0.00000
     39       9.6042      0.00000
     40       9.6546      0.00000

 k-point  1466 :      -0.4400    0.4800    0.4400
  band No.  band energies     occupation 
      1     -11.1113      2.00000
      2     -10.9263      2.00000
      3     -10.8903      2.00000
      4     -10.7321      2.00000
      5     -10.7224      2.00000
      6     -10.4297      2.00000
      7     -10.3649      2.00000
      8     -10.3210      2.00000
      9     -10.2300      2.00000
     10     -10.2200      2.00000
     11      -9.6608      2.00000
     12      -9.1417      2.00000
     13      -8.1189      2.00000
     14      -7.4409      2.00000
     15      -2.1097      2.00000
     16      -1.6418      2.00000
     17      -1.6194      2.00000
     18      -1.2236      2.00000
     19      -1.2005      2.00000
     20      -1.1534      2.00000
     21      -0.1953      2.00000
     22       1.3552      2.00000
     23       1.8094      2.00000
     24       1.8365      2.00000
     25       2.0928      2.00000
     26       2.2740      2.00000
     27       2.6886      2.00000
     28       2.8994      2.00000
     29       3.5067      2.00000
     30       3.8696      2.00000
     31       4.2599      2.00000
     32       5.5991      0.00000
     33       6.2764      0.00000
     34       7.6495      0.00000
     35       7.9999      0.00000
     36       8.3967      0.00000
     37       8.9349      0.00000
     38       9.0460      0.00000
     39       9.7488      0.00000
     40       9.8082      0.00000

 k-point  1467 :      -0.4800   -0.4800    0.4400
  band No.  band energies     occupation 
      1     -11.1042      2.00000
      2     -10.9168      2.00000
      3     -10.8944      2.00000
      4     -10.7287      2.00000
      5     -10.7227      2.00000
      6     -10.4089      2.00000
      7     -10.3661      2.00000
      8     -10.3314      2.00000
      9     -10.2270      2.00000
     10     -10.2208      2.00000
     11      -9.7158      2.00000
     12      -9.1786      2.00000
     13      -8.1597      2.00000
     14      -7.4667      2.00000
     15      -2.1229      2.00000
     16      -1.6425      2.00000
     17      -1.6293      2.00000
     18      -1.2150      2.00000
     19      -1.2004      2.00000
     20      -1.1583      2.00000
     21      -0.1924      2.00000
     22       1.5705      2.00000
     23       1.8801      2.00000
     24       1.9788      2.00000
     25       2.1892      2.00000
     26       2.4682      2.00000
     27       2.6779      2.00000
     28       2.9485      2.00000
     29       3.3821      2.00000
     30       4.0709      2.00000
     31       4.3303      2.00000
     32       5.5087      0.00000
     33       6.1558      0.00000
     34       7.4637      0.00000
     35       7.8667      0.00000
     36       8.4888      0.00000
     37       8.9685      0.00000
     38       9.0121      0.00000
     39       9.6448      0.00000
     40       9.6873      0.00000

 k-point  1468 :       0.4800    0.4800    0.4800
  band No.  band energies     occupation 
      1     -11.0960      2.00000
      2     -10.9002      2.00000
      3     -10.9002      2.00000
      4     -10.7231      2.00000
      5     -10.7231      2.00000
      6     -10.3710      2.00000
      7     -10.3710      2.00000
      8     -10.3518      2.00000
      9     -10.2218      2.00000
     10     -10.2218      2.00000
     11      -9.7935      2.00000
     12      -9.2279      2.00000
     13      -8.2174      2.00000
     14      -7.5019      2.00000
     15      -2.1425      2.00000
     16      -1.6428      2.00000
     17      -1.6428      2.00000
     18      -1.2001      2.00000
     19      -1.2001      2.00000
     20      -1.1703      2.00000
     21      -0.1946      2.00000
     22       1.9611      2.00000
     23       1.9611      2.00000
     24       2.0532      2.00000
     25       2.6273      2.00000
     26       2.6273      2.00000
     27       2.8860      2.00000
     28       2.8860      2.00000
     29       3.0372      2.00000
     30       4.4200      2.00000
     31       4.4200      2.00000
     32       5.3416      0.00000
     33       5.9508      0.00000
     34       7.1624      0.00000
     35       7.5824      0.00000
     36       8.8547      0.00000
     37       8.8547      0.00000
     38       8.9787      0.00000
     39       9.5349      0.00000
     40       9.5349      0.00000

 k-point  1469 :      -0.4800    0.4800    0.4800
  band No.  band energies     occupation 
      1     -11.0979      2.00000
      2     -10.9048      2.00000
      3     -10.8987      2.00000
      4     -10.7247      2.00000
      5     -10.7230      2.00000
      6     -10.3830      2.00000
      7     -10.3697      2.00000
      8     -10.3442      2.00000
      9     -10.2233      2.00000
     10     -10.2216      2.00000
     11      -9.7735      2.00000
     12      -9.2156      2.00000
     13      -8.2025      2.00000
     14      -7.4931      2.00000
     15      -2.1375      2.00000
     16      -1.6428      2.00000
     17      -1.6394      2.00000
     18      -1.2045      2.00000
     19      -1.2002      2.00000
     20      -1.1657      2.00000
     21      -0.1945      2.00000
     22       1.8437      2.00000
     23       1.9403      2.00000
     24       2.0546      2.00000
     25       2.4563      2.00000
     26       2.5791      2.00000
     27       2.8363      2.00000
     28       2.9094      2.00000
     29       3.1702      2.00000
     30       4.3217      2.00000
     31       4.3969      2.00000
     32       5.3929      0.00000
     33       6.0062      0.00000
     34       7.2453      0.00000
     35       7.6647      0.00000
     36       8.6983      0.00000
     37       8.8842      0.00000
     38       9.0480      0.00000
     39       9.5485      0.00000
     40       9.5738      0.00000


--------------------------------------------------------------------------------------------------------


 soft charge-density along one line, spin component           1
         0         1         2         3         4         5         6         7         8         9
 total charge-density along one line
 
 pseudopotential strength for first ion, spin component:           1
 -7.658  -0.000   0.000  -0.000  -0.000   0.000   0.002   0.000  -0.000   0.000  -8.143  -0.000   0.000  -0.000  -0.000   0.000
  0.000  -0.000  -7.710   0.000   0.000   0.000   0.000  -0.000   0.002   0.000   0.000  -0.000  -8.192   0.000   0.000   0.000
 -0.000   0.000   0.000   0.000  -7.730   0.000   0.000   0.000  -0.000   0.000  -0.000   0.000   0.000   0.000  -8.211   0.000
  0.002   0.000   0.000  -0.000   0.000   0.000  -7.710   0.000   0.000  -0.000   0.002   0.000   0.000  -0.000   0.000   0.000
 -0.000   0.000   0.002   0.000  -0.000   0.000   0.000  -0.000  -7.658  -0.000  -0.000   0.000   0.002   0.000  -0.000   0.000
 -8.143  -0.000   0.000  -0.000  -0.000   0.000   0.002   0.000  -0.000   0.000  -8.545  -0.000   0.000  -0.000  -0.000   0.000
  0.000  -0.000  -8.192   0.000   0.000   0.000   0.000  -0.000   0.002   0.000   0.000  -0.000  -8.592   0.000   0.000   0.000
 -0.000   0.000   0.000   0.000  -8.211   0.000   0.000   0.000  -0.000   0.000  -0.000   0.000   0.000   0.000  -8.609   0.000
  0.002   0.000   0.000  -0.000   0.000   0.000  -8.192   0.000   0.000  -0.000   0.002   0.000   0.000  -0.000   0.000   0.000
 -0.000   0.000   0.002   0.000  -0.000   0.000   0.000  -0.000  -8.143  -0.000  -0.000   0.000   0.002   0.000  -0.000   0.000
 -0.000  -0.000   0.000  -0.000  -0.001   0.000  -0.000  -0.000   0.000  -0.000  -0.000  -0.000   0.000  -0.000  -0.000   0.000
 -0.000  -0.000   0.000  -0.000  -0.002   0.000  -0.000  -0.000   0.000  -0.000  -0.000  -0.000   0.000  -0.000  -0.001   0.000
 -0.000  -0.000   0.009   0.000   0.000   0.000  -0.000   0.000  -0.000  -0.000  -0.000  -0.000   0.009   0.000   0.000   0.000
 -0.000   0.000  -0.000  -0.000   0.010   0.000  -0.000  -0.000   0.000   0.000  -0.000   0.000  -0.000  -0.000   0.010   0.000
 -0.000  -0.000  -0.000   0.000   0.000   0.000   0.009   0.000  -0.000  -0.000  -0.000  -0.000  -0.000   0.000   0.000   0.000
 -0.000  -0.000   0.010   0.000   0.000   0.000  -0.000   0.000  -0.000  -0.000  -0.000  -0.000   0.010   0.000   0.000   0.000
 -0.000   0.000  -0.000  -0.000   0.011  -0.000  -0.000  -0.000   0.000   0.000  -0.000   0.000  -0.000  -0.000   0.010  -0.000
 -0.000  -0.000  -0.000   0.000   0.000   0.000   0.010   0.000  -0.000  -0.000  -0.000  -0.000  -0.000   0.000   0.000   0.000
 total augmentation occupancy for first ion, spin component:           1
  2.000   0.000   0.000   0.000   0.000   0.000   0.000   0.000   0.000   0.000   0.000   0.000   0.000   0.000   0.000   0.000
  0.000   2.000   0.000   0.000   0.000   0.000   0.000   0.000   0.000   0.000   0.000   0.000   0.000   0.000   0.000   0.000
  0.000   0.000   2.000   0.000   0.000   0.000   0.000   0.000   0.000   0.000   0.000   0.000   0.000   0.000   0.000   0.000
  0.000   0.000   0.000   2.000   0.000   0.000   0.000   0.000   0.000   0.000   0.000   0.000   0.000   0.000   0.000   0.000
  0.000   0.000   0.000   0.000   2.000   0.000   0.000   0.000   0.000   0.000   0.000   0.000   0.000   0.000   0.000   0.000
  0.000   0.000   0.000   0.000   0.000   0.000   0.000   0.000   0.000   0.000   0.000   0.000   0.000   0.000   0.000   0.000
  0.000   0.000   0.000   0.000   0.000   0.000   0.000   0.000   0.000   0.000   0.000   0.000   0.000   0.000   0.000   0.000
  0.000   0.000   0.000   0.000   0.000   0.000   0.000   0.000   0.000   0.000   0.000   0.000   0.000   0.000   0.000   0.000
  0.000   0.000   0.000   0.000   0.000   0.000   0.000   0.000   0.000   0.000   0.000   0.000   0.000   0.000   0.000   0.000
  0.000   0.000   0.000   0.000   0.000   0.000   0.000   0.000   0.000   0.000   0.000   0.000   0.000   0.000   0.000   0.000
  0.000   0.000   0.000   0.000   0.000   0.000   0.000   0.000   0.000   0.000   2.000   0.000   0.000   0.000   0.000   0.000
  0.000   0.000   0.000   0.000   0.000   0.000   0.000   0.000   0.000   0.000   0.000   0.000   0.000   0.000   0.000   0.000
  0.000   0.000   0.000   0.000   0.000   0.000   0.000   0.000   0.000   0.000   0.000   0.000   0.000   0.000   0.000   0.000
  0.000   0.000   0.000   0.000   0.000   0.000   0.000   0.000   0.000   0.000   0.000   0.000   0.000   0.000   0.000   0.000
  0.000   0.000   0.000   0.000   0.000   0.000   0.000   0.000   0.000   0.000   0.000   0.000   0.000   0.000   0.000   0.000
  0.000   0.000   0.000   0.000   0.000   0.000   0.000   0.000   0.000   0.000   0.000   0.000   0.000   0.000   0.000   0.000
  0.000   0.000   0.000   0.000   0.000   0.000   0.000   0.000   0.000   0.000   0.000   0.000   0.000   0.000   0.000   0.000
  0.000   0.000   0.000   0.000   0.000   0.000   0.000   0.000   0.000   0.000   0.000   0.000   0.000   0.000   0.000   0.000


------------------------ aborting loop because EDIFF is reached ----------------------------------------





 total charge

# of ion       s       p       d       tot
------------------------------------------
    1        0.526   0.450   9.795  10.771
    2        0.733   0.606   9.948  11.287
    3        0.789   0.699   9.936  11.424
    4        1.320   2.413   0.000   3.733
    5        1.362   2.342   0.000   3.704
    6        1.347   2.375   0.000   3.722
    7        1.344   2.383   0.000   3.727
--------------------------------------------------
tot          7.421  11.268  29.678  48.367
 
    CHARGE:  cpu time     17.0639: real time     17.1261
    FORLOC:  cpu time      0.0227: real time      0.0228
    FORNL :  cpu time      5.0871: real time      5.1056
    STRESS:  cpu time     15.5093: real time     15.5667
    FORCOR:  cpu time      0.2290: real time      0.2311
    FORHAR:  cpu time      0.0711: real time      0.0714
    OFIELD:  cpu time      0.0013: real time      0.0013

  FORCE on cell =-STRESS in cart. coord.  units (eV):
  Direction    XX          YY          ZZ          XY          YZ          ZX
  --------------------------------------------------------------------------------------
  Alpha Z   144.36138   144.36138   144.36138
  Ewald   -1174.00427 -1174.00437 -1685.89483     0.00002     0.00001    -0.00000
  Hartree   766.92982   766.92982   397.32747     0.00000    -0.00000     0.00000
  E(xc)    -289.41530  -289.41530  -289.58285     0.00000     0.00000    -0.00000
  Local    -662.99157  -662.99149   212.72852    -0.00001    -0.00000     0.00000
  n-local   335.23663   332.53058   331.09472    -3.26908    -0.20876     0.28315
  augment   290.81554   290.81554   290.92510    -0.00000    -0.00000    -0.00000
  Kinetic   595.10100   589.65747   600.92153    -6.82320    -0.29050     0.18070
  Fock        0.00000     0.00000     0.00000     0.00000     0.00000     0.00000
  -------------------------------------------------------------------------------------
  Total       1.95844     1.95844     1.88105    -0.00000    -0.00000    -0.00000
  in kB      19.54867    19.54867    18.77619    -0.00000    -0.00000    -0.00000
  external pressure =       19.29 kB  Pullay stress =        0.00 kB


 VOLUME and BASIS-vectors are now :
 -----------------------------------------------------------------------------
  energy-cutoff  :      500.00
  volume of cell :      160.51
      direct lattice vectors                 reciprocal lattice vectors
     1.944688005  1.122766133 12.252165354     0.257110648  0.148442903  0.027206076
    -1.944688067  1.122766151 12.252165346    -0.257110647  0.148442900  0.027206075
    -0.000000014 -2.245532345 12.252165355    -0.000000001 -0.296885803  0.027206075

  length of vectors
    12.456242254 12.456242258 12.456242266     0.298129756  0.298129753  0.298129754


 FORCES acting on ions
    electron-ion (+dipol)            ewald-force                    non-local-force                 convergence-correction
 -----------------------------------------------------------------------------------------------
   0.152E-05 -.271E-05 0.102E+03   -.435E-05 -.680E-05 -.104E+03   -.528E-08 -.420E-08 0.254E+01   0.163E-04 0.112E-03 0.676E-01
   0.239E-05 0.220E-04 -.523E+02   0.302E-05 0.154E-04 0.496E+02   -.578E-08 -.460E-08 0.278E+01   -.267E-04 -.220E-03 -.262E-02
   0.265E-05 -.383E-05 -.616E+02   0.425E-05 0.847E-05 0.609E+02   -.169E-08 -.135E-08 0.813E+00   -.312E-04 0.222E-04 -.936E-01
   -.240E-05 -.149E-05 0.124E+03   0.480E-05 0.591E-05 -.127E+03   -.690E-08 -.549E-08 0.332E+01   -.175E-05 -.559E-05 0.269E-01
   -.249E-05 -.361E-04 -.115E+03   -.527E-05 -.587E-05 0.122E+03   0.140E-07 0.111E-07 -.672E+01   0.459E-05 0.160E-04 -.199E-01
   -.108E-05 -.211E-04 0.695E+02   -.321E-05 -.139E-04 -.716E+02   -.454E-08 -.361E-08 0.218E+01   0.256E-05 0.221E-04 0.341E-02
   -.409E-05 0.406E-04 -.739E+02   0.756E-06 -.313E-05 0.708E+02   -.632E-08 -.503E-08 0.304E+01   0.145E-05 -.106E-04 -.145E-02
 -----------------------------------------------------------------------------------------------
   -.350E-05 -.256E-05 -.793E+01   0.215E-14 0.193E-13 -.284E-13   -.165E-07 -.132E-07 0.794E+01   -.347E-04 -.641E-04 -.197E-01
 
 
 POSITION                                       TOTAL-FORCE (eV/Angst)
 -----------------------------------------------------------------------------------
     -0.00000      0.00000     14.39936         0.000000      0.000000     -0.044401
     -0.00000     -0.00000      5.94654        -0.000000     -0.000000      0.096139
     -0.00000     -0.00000     34.44579         0.000000      0.000000     -0.029376
     -0.00000     -0.00000      1.60970         0.000000      0.000000     -0.034777
     -0.00000      0.00000     11.01201        -0.000000     -0.000000      0.048010
     -0.00000      0.00000     16.94353        -0.000000     -0.000000      0.024730
     -0.00000     -0.00000     31.99209         0.000000      0.000000     -0.060326
 -----------------------------------------------------------------------------------
    total drift:                               -0.000038     -0.000067      0.000022


--------------------------------------------------------------------------------------------------------



  FREE ENERGIE OF THE ION-ELECTRON SYSTEM (eV)
  ---------------------------------------------------
  free  energy   TOTEN  =       -26.66456278 eV

  energy  without entropy=      -26.66456278  energy(sigma->0) =      -26.66456278
 


--------------------------------------------------------------------------------------------------------


    POTLOK:  cpu time      0.6851: real time      0.6875


--------------------------------------------------------------------------------------------------------


     LOOP+:  cpu time   2305.6249: real time   2314.2275
    4ORBIT:  cpu time      0.0000: real time      0.0000



 total charge

# of ion       s       p       d       tot
------------------------------------------
    1        0.526   0.450   9.795  10.771
    2        0.733   0.606   9.948  11.287
    3        0.789   0.699   9.936  11.424
    4        1.320   2.413   0.000   3.733
    5        1.362   2.342   0.000   3.704
    6        1.347   2.375   0.000   3.722
    7        1.344   2.383   0.000   3.727
--------------------------------------------------
tot          7.421  11.268  29.678  48.367
 
 BZINTS: Fermi energy:    4.420063;   62.000000 electrons
         Band energy:-0.261077E+03;  BLOECHL correction:    0.000000

 total amount of memory used by VASP MPI-rank0   528630. kBytes
=======================================================================

   base      :      30000. kBytes
   nonl-proj :     294510. kBytes
   fftplans  :      62330. kBytes
   grid      :      28016. kBytes
   one-center:         15. kBytes
   wavefun   :     113759. kBytes
 
  
  
 General timing and accounting informations for this job:
 ========================================================
  
                  Total CPU time used (sec):     3036.248
                            User time (sec):     2914.895
                          System time (sec):      121.353
                         Elapsed time (sec):     3048.483
  
                   Maximum memory used (kb):      890652.
                   Average memory used (kb):          N/A
  
                          Minor page faults:       281921
                          Major page faults:            0
                 Voluntary context switches:         1269
