 vasp.6.3.2 27Jun22 (build Sep 20 2022 16:10:27) complex                        
  
 executed on             LinuxIFC date 2024.12.02  19:54:23
 running on   36 total cores
 distrk:  each k-point on   36 cores,    1 groups
 distr:  one band on NCORE=   9 cores,    4 groups


--------------------------------------------------------------------------------------------------------


 INCAR:
   SYSTEM = PDOS-Calculation-SCF-run
   ISTART = 0
   ICHARG = 2
   ENCUT = 600.0
   ISMEAR = 0
   SIGMA = 0.05
   LREAL = .FALSE.
   PREC = Accurate
   EDIFF = 1E-08
   EDIFFG = -0.02
   NELM = 200
   ALGO = Normal
   IBRION = -1
   ISYM = 0
   LMAXMIX = 4
   NSW = 0
   LASPH = .TRUE
   ADDGRID = .TRUE.
   NCORE = 9
   ISPIN = 1
   LWAVE = .FALSE.
   LCHARG = .TRUE.
   IVDW = 11
   GGA = PE

 POTCAR:    PAW_PBE Zn 06Sep2000                  
 POTCAR:    PAW_PBE In_d 06Sep2000                
 POTCAR:    PAW_PBE S 06Sep2000                   
 POTCAR:    PAW_PBE Zn 06Sep2000                  
   SHA256 =  501fddbd8274dd8e9725d4f3de27861d7f1e553a7e18441bc79fed8f346e7f23 Zn/POTCAR             
   COPYR  = (c) Copyright 06Sep2000 Georg Kresse                                                    
   COPYR  = This file is part of the software VASP. Any use, copying, and all other rights are regul
   COPYR  = If you do not have a valid VASP license, you may not use, copy or distribute this file. 
   VRHFIN =Zn: d10 p2                                                                               
   LEXCH  = PE                                                                                      
   EATOM  =  1748.8345 eV,  128.5357 Ry                                                             
                                                                                                    
   TITEL  = PAW_PBE Zn 06Sep2000                                                                    
   LULTRA =        F    use ultrasoft PP ?                                                          
   IUNSCR =        1    unscreen: 0-lin 1-nonlin 2-no                                               
   RPACOR =    2.000    partial core radius                                                         
   POMASS =   65.390; ZVAL   =   12.000    mass and valenz                                          
   RCORE  =    2.300    outmost cutoff radius                                                       
   RWIGS  =    2.400; RWIGS  =    1.270    wigner-seitz radius (au A)                               
   ENMAX  =  276.723; ENMIN  =  207.542 eV                                                          
   RCLOC  =    1.828    cutoff for local pot                                                        
   LCOR   =        T    correct aug charges                                                         
   LPAW   =        T    paw PP                                                                      
   EAUG   =  575.892                                                                                
   DEXC   =    0.000                                                                                
   RMAX   =    2.347    core radius for proj-oper                                                   
   RAUG   =    1.300    factor for augmentation sphere                                              
   RDEP   =    2.324    radius for radial grids                                                     
   RDEPT  =    1.788    core radius for aug-charge                                                  
                                                                                                    
   Atomic configuration                                                                             
    9 entries                                                                                       
     n  l   j            E        occ.                                                              
     1  0  0.50     -9524.6913   2.0000                                                             
     2  0  0.50     -1158.1882   2.0000                                                             
     2  1  1.50     -1003.8506   6.0000                                                             
     3  0  0.50      -129.2194   2.0000                                                             
     3  1  1.50       -83.3890   6.0000                                                             
     3  2  2.50       -10.1410  10.0000                                                             
     4  0  0.50        -5.9785   2.0000                                                             
     4  1  0.50        -4.0817   0.0000                                                             
     4  3  2.50        -1.3606   0.0000                                                             
   Description                                                                                      
     l       E           TYP  RCUT    TYP  RCUT                                                     
     2    -10.1410010     23  2.300                                                                 
     2    -11.5015836     23  2.300                                                                 
     0     -5.9785163     23  2.300                                                                 
     0      1.1858015     23  2.300                                                                 
     1     -2.7211652     23  2.300                                                                 
     1     13.2444212     23  2.300                                                                 
  local pseudopotential read in
  partial core-charges read in
  partial kinetic energy density read in
  atomic valenz-charges read in
  non local Contribution for L=           2  read in
    real space projection operators read in
  non local Contribution for L=           2  read in
    real space projection operators read in
  non local Contribution for L=           0  read in
    real space projection operators read in
  non local Contribution for L=           0  read in
    real space projection operators read in
  non local Contribution for L=           1  read in
    real space projection operators read in
  non local Contribution for L=           1  read in
    real space projection operators read in
    PAW grid and wavefunctions read in
 
   number of l-projection  operators is LMAX  =           6
   number of lm-projection operators is LMMAX =          18
 
 POTCAR:    PAW_PBE In_d 06Sep2000                
   SHA256 =  bef4eefb233e1f458c7ef2e09e39e7114bb5a6a38c7ac356915527764429c513 In_d/POTCAR           
   COPYR  = (c) Copyright 06Sep2000 Georg Kresse                                                    
   COPYR  = This file is part of the software VASP. Any use, copying, and all other rights are regul
   COPYR  = If you do not have a valid VASP license, you may not use, copy or distribute this file. 
   VRHFIN =In: s2p1                                                                                 
   LEXCH  = PE                                                                                      
   EATOM  =  1576.8302 eV,  115.8937 Ry                                                             
                                                                                                    
   TITEL  = PAW_PBE In_d 06Sep2000                                                                  
   LULTRA =        F    use ultrasoft PP ?                                                          
   IUNSCR =        1    unscreen: 0-lin 1-nonlin 2-no                                               
   RPACOR =    2.200    partial core radius                                                         
   POMASS =  114.820; ZVAL   =   13.000    mass and valenz                                          
   RCORE  =    2.500    outmost cutoff radius                                                       
   RWIGS  =    3.170; RWIGS  =    1.677    wigner-seitz radius (au A)                               
   ENMAX  =  239.211; ENMIN  =  179.409 eV                                                          
   ICORE  =        3    local potential                                                             
   LCOR   =        T    correct aug charges                                                         
   LPAW   =        T    paw PP                                                                      
   EAUG   =  449.704                                                                                
   DEXC   =    0.000                                                                                
   RMAX   =    2.552    core radius for proj-oper                                                   
   RAUG   =    1.300    factor for augmentation sphere                                              
   RDEP   =    2.630    radius for radial grids                                                     
   RDEPT  =    2.033    core radius for aug-charge                                                  
                                                                                                    
   Atomic configuration                                                                             
   12 entries                                                                                       
     n  l   j            E        occ.                                                              
     1  0  0.50    -27747.9169   2.0000                                                             
     2  0  0.50     -4154.4438   2.0000                                                             
     2  1  1.50     -3728.4305   6.0000                                                             
     3  0  0.50      -788.3680   2.0000                                                             
     3  1  1.50      -648.9215   6.0000                                                             
     3  2  2.50      -432.5893  10.0000                                                             
     4  0  0.50      -119.6363   2.0000                                                             
     4  1  1.50       -78.1086   6.0000                                                             
     4  2  2.50       -18.6227  10.0000                                                             
     5  0  0.50        -8.2107   2.0000                                                             
     5  1  0.50        -2.5185   1.0000                                                             
     4  3  2.50        -2.7212   0.0000                                                             
   Description                                                                                      
     l       E           TYP  RCUT    TYP  RCUT                                                     
     2    -18.6226981     23  2.500                                                                 
     2     -1.3605826     23  2.500                                                                 
     0     -8.2107305     23  2.500                                                                 
     0     -6.1485975     23  2.500                                                                 
     1     -2.5184867     23  2.500                                                                 
     1      3.2427302     23  2.500                                                                 
     3     -1.3605826      7  2.500                                                                 
  local pseudopotential read in
  partial core-charges read in
  partial kinetic energy density read in
  atomic valenz-charges read in
  non local Contribution for L=           2  read in
    real space projection operators read in
  non local Contribution for L=           2  read in
    real space projection operators read in
  non local Contribution for L=           0  read in
    real space projection operators read in
  non local Contribution for L=           0  read in
    real space projection operators read in
  non local Contribution for L=           1  read in
    real space projection operators read in
  non local Contribution for L=           1  read in
    real space projection operators read in
    PAW grid and wavefunctions read in
 
   number of l-projection  operators is LMAX  =           6
   number of lm-projection operators is LMMAX =          18
 
 POTCAR:    PAW_PBE S 06Sep2000                   
   SHA256 =  0fc7481fb0695f01bdc6462160264c5c84044ae9ec85a907d398b887a2bc3132 S/POTCAR              
   COPYR  = (c) Copyright 06Sep2000 Georg Kresse                                                    
   COPYR  = This file is part of the software VASP. Any use, copying, and all other rights are regul
   COPYR  = If you do not have a valid VASP license, you may not use, copy or distribute this file. 
   VRHFIN =S : s2p4                                                                                 
   LEXCH  = PE                                                                                      
   EATOM  =   276.8230 eV,   20.3459 Ry                                                             
                                                                                                    
   TITEL  = PAW_PBE S 06Sep2000                                                                     
   LULTRA =        F    use ultrasoft PP ?                                                          
   IUNSCR =        1    unscreen: 0-lin 1-nonlin 2-no                                               
   RPACOR =    1.500    partial core radius                                                         
   POMASS =   32.066; ZVAL   =    6.000    mass and valenz                                          
   RCORE  =    1.900    outmost cutoff radius                                                       
   RWIGS  =    2.200; RWIGS  =    1.164    wigner-seitz radius (au A)                               
   ENMAX  =  258.689; ENMIN  =  194.016 eV                                                          
   ICORE  =        2    local potential                                                             
   LCOR   =        T    correct aug charges                                                         
   LPAW   =        T    paw PP                                                                      
   EAUG   =  335.092                                                                                
   DEXC   =    0.000                                                                                
   RMAX   =    1.942    core radius for proj-oper                                                   
   RAUG   =    1.300    factor for augmentation sphere                                              
   RDEP   =    1.954    radius for radial grids                                                     
   RDEPT  =    1.744    core radius for aug-charge                                                  
                                                                                                    
   Atomic configuration                                                                             
    6 entries                                                                                       
     n  l   j            E        occ.                                                              
     1  0  0.50     -2405.8406   2.0000                                                             
     2  0  0.50      -211.7007   2.0000                                                             
     2  1  1.50      -156.4958   6.0000                                                             
     3  0  0.50       -17.2562   2.0000                                                             
     3  1  0.50        -7.0085   4.0000                                                             
     3  2  1.50        -6.8029   0.0000                                                             
   Description                                                                                      
     l       E           TYP  RCUT    TYP  RCUT                                                     
     0    -17.2561641     23  1.900                                                                 
     0    -15.8743224     23  1.900                                                                 
     1     -7.0085400     23  1.900                                                                 
     1     -2.7779785     23  1.900                                                                 
     2     -6.8029130     23  1.900                                                                 
  local pseudopotential read in
  partial core-charges read in
  partial kinetic energy density read in
  atomic valenz-charges read in
  non local Contribution for L=           0  read in
    real space projection operators read in
  non local Contribution for L=           0  read in
    real space projection operators read in
  non local Contribution for L=           1  read in
    real space projection operators read in
  non local Contribution for L=           1  read in
    real space projection operators read in
    PAW grid and wavefunctions read in
 
   number of l-projection  operators is LMAX  =           4
   number of lm-projection operators is LMMAX =           8
 
  PAW_PBE Zn 06Sep2000                  :
 energy of atom  1       EATOM=-1748.8345
 kinetic energy error for atom=    0.0020 (will be added to EATOM!!)
  PAW_PBE In_d 06Sep2000                :
 energy of atom  2       EATOM=-1576.8302
 kinetic energy error for atom=    0.0011 (will be added to EATOM!!)
  PAW_PBE S 06Sep2000                   :
 energy of atom  3       EATOM= -276.8230
 kinetic energy error for atom=    0.0009 (will be added to EATOM!!)
 
 
 POSCAR: Primitive Cell
  positions in direct lattice
  velocities in cartesian coordinates
 exchange correlation table for  LEXCH =        8
   RHO(1)=    0.500       N(1)  =     2000
   RHO(2)=  100.500       N(2)  =     4000
 


--------------------------------------------------------------------------------------------------------


 ion  position               nearest neighbor table
   1  0.392  0.392  0.392-   4 2.31   4 2.31   4 2.31   6 2.55
   2  0.162  0.162  0.162-   6 2.57   6 2.57   6 2.57   7 2.73   7 2.73   7 2.73
   3  0.937  0.937  0.937-   7 2.45   5 2.49   5 2.49   5 2.49
   4  0.044  0.044  0.044-   1 2.31   1 2.31   1 2.31
   5  0.300  0.300  0.300-   3 2.49   3 2.49   3 2.49
   6  0.461  0.461  0.461-   1 2.55   2 2.57   2 2.57   2 2.57
   7  0.870  0.870  0.870-   3 2.45   2 2.73   2 2.73   2 2.73
 

IMPORTANT INFORMATION: All symmetrisations will be switched off!
NOSYMM: (Re-)initialisation of all symmetry stuff for point group C_1.


----------------------------------------------------------------------------------------

                                     Primitive cell                                     

  volume of cell :     160.9209

  direct lattice vectors                    reciprocal lattice vectors
     1.946732572  1.123946533 12.257705653     0.256840619  0.148287000  0.027193779
    -1.946732567  1.123946519 12.257705620    -0.256840621  0.148287000  0.027193779
     0.000000002 -2.247893213 12.257705630     0.000000001 -0.296574000  0.027193777

  length of vectors
    12.462117452 12.462117418 12.462117445     0.297818132  0.297818133  0.297818131

  position of ions in fractional coordinates (direct lattice)
     0.391739536  0.391739566  0.391739516
     0.161785311  0.161785303  0.161785315
     0.937129698  0.937129682  0.937129710
     0.043821776  0.043821811  0.043821756
     0.299532370  0.299532350  0.299532381
     0.461015730  0.461015704  0.461015733
     0.870375579  0.870375584  0.870375588

  ion indices of the primitive-cell ions
   primitive index   ion index
                 1           1
                 2           2
                 3           3
                 4           4
                 5           5
                 6           6
                 7           7

----------------------------------------------------------------------------------------

 
 
 KPOINTS: K-Spacing Value to Generate K-Mesh: 0.03

Automatic generation of k-mesh.
 Grid dimensions read from file:
 generate k-points for:   15   15   15

 Generating k-lattice:

  Cartesian coordinates                     Fractional coordinates (reciprocal lattice)
     0.017122708  0.009885800  0.001812919     0.066666667  0.000000000  0.000000000
    -0.017122708  0.009885800  0.001812919    -0.000000000  0.066666667 -0.000000000
     0.000000000 -0.019771600  0.001812918     0.000000000  0.000000000  0.066666667

  Length of vectors
     0.019854542  0.019854542  0.019854542

  Shift w.r.t. Gamma in fractional coordinates (k-lattice)
     0.000000000  0.000000000  0.000000000

 
 Subroutine IBZKPT returns following result:
 ===========================================
 
 Found   1688 irreducible k-points:
 
 Following reciprocal coordinates:
            Coordinates               Weight
  0.000000  0.000000  0.000000      1.000000
  0.066667  0.000000 -0.000000      2.000000
 -0.000000  0.066667 -0.000000      2.000000
  0.000000  0.000000  0.066667      2.000000
  0.133333 -0.000000  0.000000      2.000000
  0.000000  0.133333  0.000000      2.000000
 -0.000000 -0.000000  0.133333      2.000000
  0.200000  0.000000  0.000000      2.000000
  0.000000  0.200000 -0.000000      2.000000
  0.000000  0.000000  0.200000      2.000000
  0.266667 -0.000000  0.000000      2.000000
 -0.000000  0.266667 -0.000000      2.000000
 -0.000000 -0.000000  0.266667      2.000000
  0.333333  0.000000  0.000000      2.000000
 -0.000000  0.333333  0.000000      2.000000
  0.000000  0.000000  0.333333      2.000000
  0.400000  0.000000  0.000000      2.000000
  0.000000  0.400000  0.000000      2.000000
  0.000000  0.000000  0.400000      2.000000
  0.466667  0.000000 -0.000000      2.000000
 -0.000000  0.466667 -0.000000      2.000000
  0.000000  0.000000  0.466667      2.000000
  0.066667  0.066667 -0.000000      2.000000
 -0.066667 -0.000000 -0.066667      2.000000
 -0.000000  0.066667  0.066667      2.000000
  0.133333  0.066667 -0.000000      2.000000
 -0.133333 -0.000000 -0.066667      2.000000
  0.000000  0.133333  0.066667      2.000000
 -0.066667 -0.133333 -0.000000      2.000000
  0.066667  0.000000  0.133333      2.000000
  0.000000 -0.066667 -0.133333      2.000000
  0.200000  0.066667 -0.000000      2.000000
 -0.200000  0.000000 -0.066667      2.000000
  0.000000  0.200000  0.066667      2.000000
 -0.066667 -0.200000  0.000000      2.000000
  0.066667  0.000000  0.200000      2.000000
  0.000000 -0.066667 -0.200000      2.000000
  0.266667  0.066667 -0.000000      2.000000
 -0.266667 -0.000000 -0.066667      2.000000
 -0.000000  0.266667  0.066667      2.000000
 -0.066667 -0.266667  0.000000      2.000000
  0.066667  0.000000  0.266667      2.000000
  0.000000 -0.066667 -0.266667      2.000000
  0.333333  0.066667 -0.000000      2.000000
 -0.333333  0.000000 -0.066667      2.000000
 -0.000000  0.333333  0.066667      2.000000
 -0.066667 -0.333333 -0.000000      2.000000
  0.066667  0.000000  0.333333      2.000000
  0.000000 -0.066667 -0.333333      2.000000
  0.400000  0.066667  0.000000      2.000000
 -0.400000 -0.000000 -0.066667      2.000000
 -0.000000  0.400000  0.066667      2.000000
 -0.066667 -0.400000 -0.000000      2.000000
  0.066667  0.000000  0.400000      2.000000
  0.000000 -0.066667 -0.400000      2.000000
  0.466667  0.066667  0.000000      2.000000
 -0.466667  0.000000 -0.066667      2.000000
 -0.000000  0.466667  0.066667      2.000000
 -0.066667 -0.466667  0.000000      2.000000
  0.066667  0.000000  0.466667      2.000000
  0.000000 -0.066667 -0.466667      2.000000
 -0.466667  0.066667  0.000000      2.000000
  0.466667  0.000000 -0.066667      2.000000
 -0.000000 -0.466667  0.066667      2.000000
 -0.066667  0.466667 -0.000000      2.000000
  0.066667 -0.000000 -0.466667      2.000000
 -0.000000 -0.066667  0.466667      2.000000
 -0.400000  0.066667  0.000000      2.000000
  0.400000  0.000000 -0.066667      2.000000
 -0.000000 -0.400000  0.066667      2.000000
 -0.066667  0.400000  0.000000      2.000000
  0.066667  0.000000 -0.400000      2.000000
 -0.000000 -0.066667  0.400000      2.000000
 -0.333333  0.066667  0.000000      2.000000
  0.333333 -0.000000 -0.066667      2.000000
 -0.000000 -0.333333  0.066667      2.000000
 -0.066667  0.333333 -0.000000      2.000000
  0.066667  0.000000 -0.333333      2.000000
 -0.000000 -0.066667  0.333333      2.000000
 -0.266667  0.066667 -0.000000      2.000000
  0.266667 -0.000000 -0.066667      2.000000
 -0.000000 -0.266667  0.066667      2.000000
 -0.066667  0.266667  0.000000      2.000000
  0.066667 -0.000000 -0.266667      2.000000
 -0.000000 -0.066667  0.266667      2.000000
 -0.200000  0.066667 -0.000000      2.000000
  0.200000  0.000000 -0.066667      2.000000
  0.000000 -0.200000  0.066667      2.000000
 -0.066667  0.200000  0.000000      2.000000
  0.066667 -0.000000 -0.200000      2.000000
 -0.000000 -0.066667  0.200000      2.000000
 -0.133333  0.066667  0.000000      2.000000
  0.133333  0.000000 -0.066667      2.000000
  0.000000 -0.133333  0.066667      2.000000
 -0.066667  0.133333  0.000000      2.000000
  0.066667  0.000000 -0.133333      2.000000
 -0.000000 -0.066667  0.133333      2.000000
 -0.066667  0.066667 -0.000000      2.000000
  0.066667  0.000000 -0.066667      2.000000
 -0.000000 -0.066667  0.066667      2.000000
  0.133333  0.133333 -0.000000      2.000000
 -0.133333 -0.000000 -0.133333      2.000000
 -0.000000  0.133333  0.133333      2.000000
  0.200000  0.133333 -0.000000      2.000000
 -0.200000  0.000000 -0.133333      2.000000
  0.000000  0.200000  0.133333      2.000000
 -0.133333 -0.200000  0.000000      2.000000
  0.133333  0.000000  0.200000      2.000000
 -0.000000 -0.133333 -0.200000      2.000000
  0.266667  0.133333 -0.000000      2.000000
 -0.266667  0.000000 -0.133333      2.000000
  0.000000  0.266667  0.133333      2.000000
 -0.133333 -0.266667  0.000000      2.000000
  0.133333  0.000000  0.266667      2.000000
  0.000000 -0.133333 -0.266667      2.000000
  0.333333  0.133333 -0.000000      2.000000
 -0.333333 -0.000000 -0.133333      2.000000
 -0.000000  0.333333  0.133333      2.000000
 -0.133333 -0.333333  0.000000      2.000000
  0.133333  0.000000  0.333333      2.000000
 -0.000000 -0.133333 -0.333333      2.000000
  0.400000  0.133333 -0.000000      2.000000
 -0.400000 -0.000000 -0.133333      2.000000
  0.000000  0.400000  0.133333      2.000000
 -0.133333 -0.400000 -0.000000      2.000000
  0.133333  0.000000  0.400000      2.000000
  0.000000 -0.133333 -0.400000      2.000000
  0.466667  0.133333 -0.000000      2.000000
 -0.466667  0.000000 -0.133333      2.000000
 -0.000000  0.466667  0.133333      2.000000
 -0.133333 -0.466667  0.000000      2.000000
  0.133333  0.000000  0.466667      2.000000
  0.000000 -0.133333 -0.466667      2.000000
 -0.466667  0.133333 -0.000000      2.000000
  0.466667 -0.000000 -0.133333      2.000000
  0.000000 -0.466667  0.133333      2.000000
 -0.133333  0.466667 -0.000000      2.000000
  0.133333 -0.000000 -0.466667      2.000000
 -0.000000 -0.133333  0.466667      2.000000
 -0.400000  0.133333 -0.000000      2.000000
  0.400000  0.000000 -0.133333      2.000000
  0.000000 -0.400000  0.133333      2.000000
 -0.133333  0.400000  0.000000      2.000000
  0.133333 -0.000000 -0.400000      2.000000
 -0.000000 -0.133333  0.400000      2.000000
 -0.333333  0.133333  0.000000      2.000000
  0.333333  0.000000 -0.133333      2.000000
 -0.000000 -0.333333  0.133333      2.000000
 -0.133333  0.333333  0.000000      2.000000
  0.133333  0.000000 -0.333333      2.000000
  0.000000 -0.133333  0.333333      2.000000
 -0.266667  0.133333  0.000000      2.000000
  0.266667  0.000000 -0.133333      2.000000
  0.000000 -0.266667  0.133333      2.000000
 -0.133333  0.266667 -0.000000      2.000000
  0.133333  0.000000 -0.266667      2.000000
  0.000000 -0.133333  0.266667      2.000000
 -0.200000  0.133333  0.000000      2.000000
  0.200000  0.000000 -0.133333      2.000000
 -0.000000 -0.200000  0.133333      2.000000
 -0.133333  0.200000 -0.000000      2.000000
  0.133333  0.000000 -0.200000      2.000000
 -0.000000 -0.133333  0.200000      2.000000
 -0.133333  0.133333  0.000000      2.000000
  0.133333  0.000000 -0.133333      2.000000
 -0.000000 -0.133333  0.133333      2.000000
  0.200000  0.200000  0.000000      2.000000
 -0.200000  0.000000 -0.200000      2.000000
  0.000000  0.200000  0.200000      2.000000
  0.266667  0.200000  0.000000      2.000000
 -0.266667 -0.000000 -0.200000      2.000000
 -0.000000  0.266667  0.200000      2.000000
 -0.200000 -0.266667 -0.000000      2.000000
  0.200000  0.000000  0.266667      2.000000
  0.000000 -0.200000 -0.266667      2.000000
  0.333333  0.200000  0.000000      2.000000
 -0.333333 -0.000000 -0.200000      2.000000
 -0.000000  0.333333  0.200000      2.000000
 -0.200000 -0.333333 -0.000000      2.000000
  0.200000  0.000000  0.333333      2.000000
  0.000000 -0.200000 -0.333333      2.000000
  0.400000  0.200000 -0.000000      2.000000
 -0.400000 -0.000000 -0.200000      2.000000
 -0.000000  0.400000  0.200000      2.000000
 -0.200000 -0.400000  0.000000      2.000000
  0.200000  0.000000  0.400000      2.000000
  0.000000 -0.200000 -0.400000      2.000000
  0.466667  0.200000 -0.000000      2.000000
 -0.466667 -0.000000 -0.200000      2.000000
 -0.000000  0.466667  0.200000      2.000000
 -0.200000 -0.466667  0.000000      2.000000
  0.200000  0.000000  0.466667      2.000000
  0.000000 -0.200000 -0.466667      2.000000
 -0.466667  0.200000 -0.000000      2.000000
  0.466667 -0.000000 -0.200000      2.000000
 -0.000000 -0.466667  0.200000      2.000000
 -0.200000  0.466667 -0.000000      2.000000
  0.200000 -0.000000 -0.466667      2.000000
 -0.000000 -0.200000  0.466667      2.000000
 -0.400000  0.200000 -0.000000      2.000000
  0.400000 -0.000000 -0.200000      2.000000
 -0.000000 -0.400000  0.200000      2.000000
 -0.200000  0.400000  0.000000      2.000000
  0.200000  0.000000 -0.400000      2.000000
 -0.000000 -0.200000  0.400000      2.000000
 -0.333333  0.200000 -0.000000      2.000000
  0.333333 -0.000000 -0.200000      2.000000
 -0.000000 -0.333333  0.200000      2.000000
 -0.200000  0.333333  0.000000      2.000000
  0.200000 -0.000000 -0.333333      2.000000
 -0.000000 -0.200000  0.333333      2.000000
 -0.266667  0.200000 -0.000000      2.000000
  0.266667 -0.000000 -0.200000      2.000000
 -0.000000 -0.266667  0.200000      2.000000
 -0.200000  0.266667 -0.000000      2.000000
  0.200000  0.000000 -0.266667      2.000000
 -0.000000 -0.200000  0.266667      2.000000
 -0.200000  0.200000 -0.000000      2.000000
  0.200000  0.000000 -0.200000      2.000000
 -0.000000 -0.200000  0.200000      2.000000
  0.266667  0.266667  0.000000      2.000000
 -0.266667 -0.000000 -0.266667      2.000000
  0.000000  0.266667  0.266667      2.000000
  0.333333  0.266667  0.000000      2.000000
 -0.333333 -0.000000 -0.266667      2.000000
  0.000000  0.333333  0.266667      2.000000
 -0.266667 -0.333333  0.000000      2.000000
  0.266667  0.000000  0.333333      2.000000
  0.000000 -0.266667 -0.333333      2.000000
  0.400000  0.266667  0.000000      2.000000
 -0.400000  0.000000 -0.266667      2.000000
 -0.000000  0.400000  0.266667      2.000000
 -0.266667 -0.400000  0.000000      2.000000
  0.266667 -0.000000  0.400000      2.000000
  0.000000 -0.266667 -0.400000      2.000000
  0.466667  0.266667  0.000000      2.000000
 -0.466667 -0.000000 -0.266667      2.000000
 -0.000000  0.466667  0.266667      2.000000
 -0.266667 -0.466667 -0.000000      2.000000
  0.266667  0.000000  0.466667      2.000000
  0.000000 -0.266667 -0.466667      2.000000
 -0.466667  0.266667  0.000000      2.000000
  0.466667  0.000000 -0.266667      2.000000
 -0.000000 -0.466667  0.266667      2.000000
 -0.266667  0.466667 -0.000000      2.000000
  0.266667  0.000000 -0.466667      2.000000
 -0.000000 -0.266667  0.466667      2.000000
 -0.400000  0.266667  0.000000      2.000000
  0.400000  0.000000 -0.266667      2.000000
  0.000000 -0.400000  0.266667      2.000000
 -0.266667  0.400000 -0.000000      2.000000
  0.266667  0.000000 -0.400000      2.000000
  0.000000 -0.266667  0.400000      2.000000
 -0.333333  0.266667 -0.000000      2.000000
  0.333333  0.000000 -0.266667      2.000000
  0.000000 -0.333333  0.266667      2.000000
 -0.266667  0.333333  0.000000      2.000000
  0.266667 -0.000000 -0.333333      2.000000
 -0.000000 -0.266667  0.333333      2.000000
 -0.266667  0.266667 -0.000000      2.000000
  0.266667  0.000000 -0.266667      2.000000
 -0.000000 -0.266667  0.266667      2.000000
  0.333333  0.333333 -0.000000      2.000000
 -0.333333 -0.000000 -0.333333      2.000000
  0.000000  0.333333  0.333333      2.000000
  0.400000  0.333333 -0.000000      2.000000
 -0.400000 -0.000000 -0.333333      2.000000
 -0.000000  0.400000  0.333333      2.000000
 -0.333333 -0.400000  0.000000      2.000000
  0.333333  0.000000  0.400000      2.000000
  0.000000 -0.333333 -0.400000      2.000000
  0.466667  0.333333 -0.000000      2.000000
 -0.466667 -0.000000 -0.333333      2.000000
 -0.000000  0.466667  0.333333      2.000000
 -0.333333 -0.466667 -0.000000      2.000000
  0.333333 -0.000000  0.466667      2.000000
  0.000000 -0.333333 -0.466667      2.000000
 -0.466667  0.333333 -0.000000      2.000000
  0.466667 -0.000000 -0.333333      2.000000
 -0.000000 -0.466667  0.333333      2.000000
 -0.333333  0.466667 -0.000000      2.000000
  0.333333 -0.000000 -0.466667      2.000000
 -0.000000 -0.333333  0.466667      2.000000
 -0.400000  0.333333 -0.000000      2.000000
  0.400000  0.000000 -0.333333      2.000000
 -0.000000 -0.400000  0.333333      2.000000
 -0.333333  0.400000 -0.000000      2.000000
  0.333333  0.000000 -0.400000      2.000000
  0.000000 -0.333333  0.400000      2.000000
 -0.333333  0.333333  0.000000      2.000000
  0.333333 -0.000000 -0.333333      2.000000
 -0.000000 -0.333333  0.333333      2.000000
  0.400000  0.400000 -0.000000      2.000000
 -0.400000  0.000000 -0.400000      2.000000
 -0.000000  0.400000  0.400000      2.000000
  0.466667  0.400000 -0.000000      2.000000
 -0.466667  0.000000 -0.400000      2.000000
 -0.000000  0.466667  0.400000      2.000000
 -0.400000 -0.466667 -0.000000      2.000000
  0.400000  0.000000  0.466667      2.000000
  0.000000 -0.400000 -0.466667      2.000000
 -0.466667  0.400000 -0.000000      2.000000
  0.466667 -0.000000 -0.400000      2.000000
  0.000000 -0.466667  0.400000      2.000000
 -0.400000  0.466667  0.000000      2.000000
  0.400000 -0.000000 -0.466667      2.000000
 -0.000000 -0.400000  0.466667      2.000000
 -0.400000  0.400000 -0.000000      2.000000
  0.400000 -0.000000 -0.400000      2.000000
  0.000000 -0.400000  0.400000      2.000000
  0.466667  0.466667  0.000000      2.000000
 -0.466667  0.000000 -0.466667      2.000000
 -0.000000  0.466667  0.466667      2.000000
 -0.466667  0.466667  0.000000      2.000000
  0.466667 -0.000000 -0.466667      2.000000
  0.000000 -0.466667  0.466667      2.000000
  0.066667  0.066667  0.066667      2.000000
  0.133333  0.066667  0.066667      2.000000
  0.066667  0.133333  0.066667      2.000000
  0.066667  0.066667  0.133333      2.000000
  0.200000  0.066667  0.066667      2.000000
  0.066667  0.200000  0.066667      2.000000
  0.066667  0.066667  0.200000      2.000000
  0.266667  0.066667  0.066667      2.000000
  0.066667  0.266667  0.066667      2.000000
  0.066667  0.066667  0.266667      2.000000
  0.333333  0.066667  0.066667      2.000000
  0.066667  0.333333  0.066667      2.000000
  0.066667  0.066667  0.333333      2.000000
  0.400000  0.066667  0.066667      2.000000
  0.066667  0.400000  0.066667      2.000000
  0.066667  0.066667  0.400000      2.000000
  0.466667  0.066667  0.066667      2.000000
  0.066667  0.466667  0.066667      2.000000
  0.066667  0.066667  0.466667      2.000000
 -0.466667  0.066667  0.066667      2.000000
  0.066667 -0.466667  0.066667      2.000000
  0.066667  0.066667 -0.466667      2.000000
 -0.400000  0.066667  0.066667      2.000000
  0.066667 -0.400000  0.066667      2.000000
  0.066667  0.066667 -0.400000      2.000000
 -0.333333  0.066667  0.066667      2.000000
  0.066667 -0.333333  0.066667      2.000000
  0.066667  0.066667 -0.333333      2.000000
 -0.266667  0.066667  0.066667      2.000000
  0.066667 -0.266667  0.066667      2.000000
  0.066667  0.066667 -0.266667      2.000000
 -0.200000  0.066667  0.066667      2.000000
  0.066667 -0.200000  0.066667      2.000000
  0.066667  0.066667 -0.200000      2.000000
 -0.133333  0.066667  0.066667      2.000000
  0.066667 -0.133333  0.066667      2.000000
  0.066667  0.066667 -0.133333      2.000000
 -0.066667  0.066667  0.066667      2.000000
  0.066667 -0.066667  0.066667      2.000000
  0.066667  0.066667 -0.066667      2.000000
  0.133333  0.133333  0.066667      2.000000
 -0.133333 -0.066667 -0.133333      2.000000
  0.066667  0.133333  0.133333      2.000000
  0.200000  0.133333  0.066667      2.000000
 -0.200000 -0.066667 -0.133333      2.000000
  0.066667  0.200000  0.133333      2.000000
 -0.133333 -0.200000 -0.066667      2.000000
  0.133333  0.066667  0.200000      2.000000
 -0.066667 -0.133333 -0.200000      2.000000
  0.266667  0.133333  0.066667      2.000000
 -0.266667 -0.066667 -0.133333      2.000000
  0.066667  0.266667  0.133333      2.000000
 -0.133333 -0.266667 -0.066667      2.000000
  0.133333  0.066667  0.266667      2.000000
 -0.066667 -0.133333 -0.266667      2.000000
  0.333333  0.133333  0.066667      2.000000
 -0.333333 -0.066667 -0.133333      2.000000
  0.066667  0.333333  0.133333      2.000000
 -0.133333 -0.333333 -0.066667      2.000000
  0.133333  0.066667  0.333333      2.000000
 -0.066667 -0.133333 -0.333333      2.000000
  0.400000  0.133333  0.066667      2.000000
 -0.400000 -0.066667 -0.133333      2.000000
  0.066667  0.400000  0.133333      2.000000
 -0.133333 -0.400000 -0.066667      2.000000
  0.133333  0.066667  0.400000      2.000000
 -0.066667 -0.133333 -0.400000      2.000000
  0.466667  0.133333  0.066667      2.000000
 -0.466667 -0.066667 -0.133333      2.000000
  0.066667  0.466667  0.133333      2.000000
 -0.133333 -0.466667 -0.066667      2.000000
  0.133333  0.066667  0.466667      2.000000
 -0.066667 -0.133333 -0.466667      2.000000
 -0.466667  0.133333  0.066667      2.000000
  0.466667 -0.066667 -0.133333      2.000000
  0.066667 -0.466667  0.133333      2.000000
 -0.133333  0.466667 -0.066667      2.000000
  0.133333  0.066667 -0.466667      2.000000
 -0.066667 -0.133333  0.466667      2.000000
 -0.400000  0.133333  0.066667      2.000000
  0.400000 -0.066667 -0.133333      2.000000
  0.066667 -0.400000  0.133333      2.000000
 -0.133333  0.400000 -0.066667      2.000000
  0.133333  0.066667 -0.400000      2.000000
 -0.066667 -0.133333  0.400000      2.000000
 -0.333333  0.133333  0.066667      2.000000
  0.333333 -0.066667 -0.133333      2.000000
  0.066667 -0.333333  0.133333      2.000000
 -0.133333  0.333333 -0.066667      2.000000
  0.133333  0.066667 -0.333333      2.000000
 -0.066667 -0.133333  0.333333      2.000000
 -0.266667  0.133333  0.066667      2.000000
  0.266667 -0.066667 -0.133333      2.000000
  0.066667 -0.266667  0.133333      2.000000
 -0.133333  0.266667 -0.066667      2.000000
  0.133333  0.066667 -0.266667      2.000000
 -0.066667 -0.133333  0.266667      2.000000
 -0.200000  0.133333  0.066667      2.000000
  0.200000 -0.066667 -0.133333      2.000000
  0.066667 -0.200000  0.133333      2.000000
 -0.133333  0.200000 -0.066667      2.000000
  0.133333  0.066667 -0.200000      2.000000
 -0.066667 -0.133333  0.200000      2.000000
 -0.133333  0.133333  0.066667      2.000000
  0.133333 -0.066667 -0.133333      2.000000
  0.066667 -0.133333  0.133333      2.000000
 -0.133333  0.133333 -0.066667      2.000000
  0.133333  0.066667 -0.133333      2.000000
 -0.066667 -0.133333  0.133333      2.000000
 -0.066667  0.133333  0.066667      2.000000
  0.066667 -0.066667 -0.133333      2.000000
  0.066667 -0.066667  0.133333      2.000000
 -0.133333  0.066667 -0.066667      2.000000
  0.133333  0.066667 -0.066667      2.000000
 -0.066667 -0.133333  0.066667      2.000000
  0.200000  0.200000  0.066667      2.000000
 -0.200000 -0.066667 -0.200000      2.000000
  0.066667  0.200000  0.200000      2.000000
  0.266667  0.200000  0.066667      2.000000
 -0.266667 -0.066667 -0.200000      2.000000
  0.066667  0.266667  0.200000      2.000000
 -0.200000 -0.266667 -0.066667      2.000000
  0.200000  0.066667  0.266667      2.000000
 -0.066667 -0.200000 -0.266667      2.000000
  0.333333  0.200000  0.066667      2.000000
 -0.333333 -0.066667 -0.200000      2.000000
  0.066667  0.333333  0.200000      2.000000
 -0.200000 -0.333333 -0.066667      2.000000
  0.200000  0.066667  0.333333      2.000000
 -0.066667 -0.200000 -0.333333      2.000000
  0.400000  0.200000  0.066667      2.000000
 -0.400000 -0.066667 -0.200000      2.000000
  0.066667  0.400000  0.200000      2.000000
 -0.200000 -0.400000 -0.066667      2.000000
  0.200000  0.066667  0.400000      2.000000
 -0.066667 -0.200000 -0.400000      2.000000
  0.466667  0.200000  0.066667      2.000000
 -0.466667 -0.066667 -0.200000      2.000000
  0.066667  0.466667  0.200000      2.000000
 -0.200000 -0.466667 -0.066667      2.000000
  0.200000  0.066667  0.466667      2.000000
 -0.066667 -0.200000 -0.466667      2.000000
 -0.466667  0.200000  0.066667      2.000000
  0.466667 -0.066667 -0.200000      2.000000
  0.066667 -0.466667  0.200000      2.000000
 -0.200000  0.466667 -0.066667      2.000000
  0.200000  0.066667 -0.466667      2.000000
 -0.066667 -0.200000  0.466667      2.000000
 -0.400000  0.200000  0.066667      2.000000
  0.400000 -0.066667 -0.200000      2.000000
  0.066667 -0.400000  0.200000      2.000000
 -0.200000  0.400000 -0.066667      2.000000
  0.200000  0.066667 -0.400000      2.000000
 -0.066667 -0.200000  0.400000      2.000000
 -0.333333  0.200000  0.066667      2.000000
  0.333333 -0.066667 -0.200000      2.000000
  0.066667 -0.333333  0.200000      2.000000
 -0.200000  0.333333 -0.066667      2.000000
  0.200000  0.066667 -0.333333      2.000000
 -0.066667 -0.200000  0.333333      2.000000
 -0.266667  0.200000  0.066667      2.000000
  0.266667 -0.066667 -0.200000      2.000000
  0.066667 -0.266667  0.200000      2.000000
 -0.200000  0.266667 -0.066667      2.000000
  0.200000  0.066667 -0.266667      2.000000
 -0.066667 -0.200000  0.266667      2.000000
 -0.200000  0.200000  0.066667      2.000000
  0.200000 -0.066667 -0.200000      2.000000
  0.066667 -0.200000  0.200000      2.000000
 -0.200000  0.200000 -0.066667      2.000000
  0.200000  0.066667 -0.200000      2.000000
 -0.066667 -0.200000  0.200000      2.000000
 -0.133333  0.200000  0.066667      2.000000
  0.133333 -0.066667 -0.200000      2.000000
  0.066667 -0.133333  0.200000      2.000000
 -0.200000  0.133333 -0.066667      2.000000
  0.200000  0.066667 -0.133333      2.000000
 -0.066667 -0.200000  0.133333      2.000000
 -0.066667  0.200000  0.066667      2.000000
  0.066667 -0.066667 -0.200000      2.000000
  0.066667 -0.066667  0.200000      2.000000
 -0.200000  0.066667 -0.066667      2.000000
  0.200000  0.066667 -0.066667      2.000000
 -0.066667 -0.200000  0.066667      2.000000
  0.266667  0.266667  0.066667      2.000000
 -0.266667 -0.066667 -0.266667      2.000000
  0.066667  0.266667  0.266667      2.000000
  0.333333  0.266667  0.066667      2.000000
 -0.333333 -0.066667 -0.266667      2.000000
  0.066667  0.333333  0.266667      2.000000
 -0.266667 -0.333333 -0.066667      2.000000
  0.266667  0.066667  0.333333      2.000000
 -0.066667 -0.266667 -0.333333      2.000000
  0.400000  0.266667  0.066667      2.000000
 -0.400000 -0.066667 -0.266667      2.000000
  0.066667  0.400000  0.266667      2.000000
 -0.266667 -0.400000 -0.066667      2.000000
  0.266667  0.066667  0.400000      2.000000
 -0.066667 -0.266667 -0.400000      2.000000
  0.466667  0.266667  0.066667      2.000000
 -0.466667 -0.066667 -0.266667      2.000000
  0.066667  0.466667  0.266667      2.000000
 -0.266667 -0.466667 -0.066667      2.000000
  0.266667  0.066667  0.466667      2.000000
 -0.066667 -0.266667 -0.466667      2.000000
 -0.466667  0.266667  0.066667      2.000000
  0.466667 -0.066667 -0.266667      2.000000
  0.066667 -0.466667  0.266667      2.000000
 -0.266667  0.466667 -0.066667      2.000000
  0.266667  0.066667 -0.466667      2.000000
 -0.066667 -0.266667  0.466667      2.000000
 -0.400000  0.266667  0.066667      2.000000
  0.400000 -0.066667 -0.266667      2.000000
  0.066667 -0.400000  0.266667      2.000000
 -0.266667  0.400000 -0.066667      2.000000
  0.266667  0.066667 -0.400000      2.000000
 -0.066667 -0.266667  0.400000      2.000000
 -0.333333  0.266667  0.066667      2.000000
  0.333333 -0.066667 -0.266667      2.000000
  0.066667 -0.333333  0.266667      2.000000
 -0.266667  0.333333 -0.066667      2.000000
  0.266667  0.066667 -0.333333      2.000000
 -0.066667 -0.266667  0.333333      2.000000
 -0.266667  0.266667  0.066667      2.000000
  0.266667 -0.066667 -0.266667      2.000000
  0.066667 -0.266667  0.266667      2.000000
 -0.266667  0.266667 -0.066667      2.000000
  0.266667  0.066667 -0.266667      2.000000
 -0.066667 -0.266667  0.266667      2.000000
 -0.200000  0.266667  0.066667      2.000000
  0.200000 -0.066667 -0.266667      2.000000
  0.066667 -0.200000  0.266667      2.000000
 -0.266667  0.200000 -0.066667      2.000000
  0.266667  0.066667 -0.200000      2.000000
 -0.066667 -0.266667  0.200000      2.000000
 -0.133333  0.266667  0.066667      2.000000
  0.133333 -0.066667 -0.266667      2.000000
  0.066667 -0.133333  0.266667      2.000000
 -0.266667  0.133333 -0.066667      2.000000
  0.266667  0.066667 -0.133333      2.000000
 -0.066667 -0.266667  0.133333      2.000000
 -0.066667  0.266667  0.066667      2.000000
  0.066667 -0.066667 -0.266667      2.000000
  0.066667 -0.066667  0.266667      2.000000
 -0.266667  0.066667 -0.066667      2.000000
  0.266667  0.066667 -0.066667      2.000000
 -0.066667 -0.266667  0.066667      2.000000
  0.333333  0.333333  0.066667      2.000000
 -0.333333 -0.066667 -0.333333      2.000000
  0.066667  0.333333  0.333333      2.000000
  0.400000  0.333333  0.066667      2.000000
 -0.400000 -0.066667 -0.333333      2.000000
  0.066667  0.400000  0.333333      2.000000
 -0.333333 -0.400000 -0.066667      2.000000
  0.333333  0.066667  0.400000      2.000000
 -0.066667 -0.333333 -0.400000      2.000000
  0.466667  0.333333  0.066667      2.000000
 -0.466667 -0.066667 -0.333333      2.000000
  0.066667  0.466667  0.333333      2.000000
 -0.333333 -0.466667 -0.066667      2.000000
  0.333333  0.066667  0.466667      2.000000
 -0.066667 -0.333333 -0.466667      2.000000
 -0.466667  0.333333  0.066667      2.000000
  0.466667 -0.066667 -0.333333      2.000000
  0.066667 -0.466667  0.333333      2.000000
 -0.333333  0.466667 -0.066667      2.000000
  0.333333  0.066667 -0.466667      2.000000
 -0.066667 -0.333333  0.466667      2.000000
 -0.400000  0.333333  0.066667      2.000000
  0.400000 -0.066667 -0.333333      2.000000
  0.066667 -0.400000  0.333333      2.000000
 -0.333333  0.400000 -0.066667      2.000000
  0.333333  0.066667 -0.400000      2.000000
 -0.066667 -0.333333  0.400000      2.000000
 -0.333333  0.333333  0.066667      2.000000
  0.333333 -0.066667 -0.333333      2.000000
  0.066667 -0.333333  0.333333      2.000000
 -0.333333  0.333333 -0.066667      2.000000
  0.333333  0.066667 -0.333333      2.000000
 -0.066667 -0.333333  0.333333      2.000000
 -0.266667  0.333333  0.066667      2.000000
  0.266667 -0.066667 -0.333333      2.000000
  0.066667 -0.266667  0.333333      2.000000
 -0.333333  0.266667 -0.066667      2.000000
  0.333333  0.066667 -0.266667      2.000000
 -0.066667 -0.333333  0.266667      2.000000
 -0.200000  0.333333  0.066667      2.000000
  0.200000 -0.066667 -0.333333      2.000000
  0.066667 -0.200000  0.333333      2.000000
 -0.333333  0.200000 -0.066667      2.000000
  0.333333  0.066667 -0.200000      2.000000
 -0.066667 -0.333333  0.200000      2.000000
 -0.133333  0.333333  0.066667      2.000000
  0.133333 -0.066667 -0.333333      2.000000
  0.066667 -0.133333  0.333333      2.000000
 -0.333333  0.133333 -0.066667      2.000000
  0.333333  0.066667 -0.133333      2.000000
 -0.066667 -0.333333  0.133333      2.000000
 -0.066667  0.333333  0.066667      2.000000
  0.066667 -0.066667 -0.333333      2.000000
  0.066667 -0.066667  0.333333      2.000000
 -0.333333  0.066667 -0.066667      2.000000
  0.333333  0.066667 -0.066667      2.000000
 -0.066667 -0.333333  0.066667      2.000000
  0.400000  0.400000  0.066667      2.000000
 -0.400000 -0.066667 -0.400000      2.000000
  0.066667  0.400000  0.400000      2.000000
  0.466667  0.400000  0.066667      2.000000
 -0.466667 -0.066667 -0.400000      2.000000
  0.066667  0.466667  0.400000      2.000000
 -0.400000 -0.466667 -0.066667      2.000000
  0.400000  0.066667  0.466667      2.000000
 -0.066667 -0.400000 -0.466667      2.000000
 -0.466667  0.400000  0.066667      2.000000
  0.466667 -0.066667 -0.400000      2.000000
  0.066667 -0.466667  0.400000      2.000000
 -0.400000  0.466667 -0.066667      2.000000
  0.400000  0.066667 -0.466667      2.000000
 -0.066667 -0.400000  0.466667      2.000000
 -0.400000  0.400000  0.066667      2.000000
  0.400000 -0.066667 -0.400000      2.000000
  0.066667 -0.400000  0.400000      2.000000
 -0.400000  0.400000 -0.066667      2.000000
  0.400000  0.066667 -0.400000      2.000000
 -0.066667 -0.400000  0.400000      2.000000
 -0.333333  0.400000  0.066667      2.000000
  0.333333 -0.066667 -0.400000      2.000000
  0.066667 -0.333333  0.400000      2.000000
 -0.400000  0.333333 -0.066667      2.000000
  0.400000  0.066667 -0.333333      2.000000
 -0.066667 -0.400000  0.333333      2.000000
 -0.266667  0.400000  0.066667      2.000000
  0.266667 -0.066667 -0.400000      2.000000
  0.066667 -0.266667  0.400000      2.000000
 -0.400000  0.266667 -0.066667      2.000000
  0.400000  0.066667 -0.266667      2.000000
 -0.066667 -0.400000  0.266667      2.000000
 -0.200000  0.400000  0.066667      2.000000
  0.200000 -0.066667 -0.400000      2.000000
  0.066667 -0.200000  0.400000      2.000000
 -0.400000  0.200000 -0.066667      2.000000
  0.400000  0.066667 -0.200000      2.000000
 -0.066667 -0.400000  0.200000      2.000000
 -0.133333  0.400000  0.066667      2.000000
  0.133333 -0.066667 -0.400000      2.000000
  0.066667 -0.133333  0.400000      2.000000
 -0.400000  0.133333 -0.066667      2.000000
  0.400000  0.066667 -0.133333      2.000000
 -0.066667 -0.400000  0.133333      2.000000
 -0.066667  0.400000  0.066667      2.000000
  0.066667 -0.066667 -0.400000      2.000000
  0.066667 -0.066667  0.400000      2.000000
 -0.400000  0.066667 -0.066667      2.000000
  0.400000  0.066667 -0.066667      2.000000
 -0.066667 -0.400000  0.066667      2.000000
  0.466667  0.466667  0.066667      2.000000
 -0.466667 -0.066667 -0.466667      2.000000
  0.066667  0.466667  0.466667      2.000000
 -0.466667  0.466667  0.066667      2.000000
  0.466667 -0.066667 -0.466667      2.000000
  0.066667 -0.466667  0.466667      2.000000
 -0.466667  0.466667 -0.066667      2.000000
  0.466667  0.066667 -0.466667      2.000000
 -0.066667 -0.466667  0.466667      2.000000
 -0.400000  0.466667  0.066667      2.000000
  0.400000 -0.066667 -0.466667      2.000000
  0.066667 -0.400000  0.466667      2.000000
 -0.466667  0.400000 -0.066667      2.000000
  0.466667  0.066667 -0.400000      2.000000
 -0.066667 -0.466667  0.400000      2.000000
 -0.333333  0.466667  0.066667      2.000000
  0.333333 -0.066667 -0.466667      2.000000
  0.066667 -0.333333  0.466667      2.000000
 -0.466667  0.333333 -0.066667      2.000000
  0.466667  0.066667 -0.333333      2.000000
 -0.066667 -0.466667  0.333333      2.000000
 -0.266667  0.466667  0.066667      2.000000
  0.266667 -0.066667 -0.466667      2.000000
  0.066667 -0.266667  0.466667      2.000000
 -0.466667  0.266667 -0.066667      2.000000
  0.466667  0.066667 -0.266667      2.000000
 -0.066667 -0.466667  0.266667      2.000000
 -0.200000  0.466667  0.066667      2.000000
  0.200000 -0.066667 -0.466667      2.000000
  0.066667 -0.200000  0.466667      2.000000
 -0.466667  0.200000 -0.066667      2.000000
  0.466667  0.066667 -0.200000      2.000000
 -0.066667 -0.466667  0.200000      2.000000
 -0.133333  0.466667  0.066667      2.000000
  0.133333 -0.066667 -0.466667      2.000000
  0.066667 -0.133333  0.466667      2.000000
 -0.466667  0.133333 -0.066667      2.000000
  0.466667  0.066667 -0.133333      2.000000
 -0.066667 -0.466667  0.133333      2.000000
 -0.066667  0.466667  0.066667      2.000000
  0.066667 -0.066667 -0.466667      2.000000
  0.066667 -0.066667  0.466667      2.000000
 -0.466667  0.066667 -0.066667      2.000000
  0.466667  0.066667 -0.066667      2.000000
 -0.066667 -0.466667  0.066667      2.000000
 -0.466667 -0.466667  0.066667      2.000000
  0.466667 -0.066667  0.466667      2.000000
  0.066667 -0.466667 -0.466667      2.000000
 -0.400000 -0.466667  0.066667      2.000000
  0.400000 -0.066667  0.466667      2.000000
  0.066667 -0.400000 -0.466667      2.000000
  0.466667  0.400000 -0.066667      2.000000
 -0.466667  0.066667 -0.400000      2.000000
 -0.066667  0.466667  0.400000      2.000000
 -0.333333 -0.466667  0.066667      2.000000
  0.333333 -0.066667  0.466667      2.000000
  0.066667 -0.333333 -0.466667      2.000000
  0.466667  0.333333 -0.066667      2.000000
 -0.466667  0.066667 -0.333333      2.000000
 -0.066667  0.466667  0.333333      2.000000
 -0.266667 -0.466667  0.066667      2.000000
  0.266667 -0.066667  0.466667      2.000000
  0.066667 -0.266667 -0.466667      2.000000
  0.466667  0.266667 -0.066667      2.000000
 -0.466667  0.066667 -0.266667      2.000000
 -0.066667  0.466667  0.266667      2.000000
 -0.200000 -0.466667  0.066667      2.000000
  0.200000 -0.066667  0.466667      2.000000
  0.066667 -0.200000 -0.466667      2.000000
  0.466667  0.200000 -0.066667      2.000000
 -0.466667  0.066667 -0.200000      2.000000
 -0.066667  0.466667  0.200000      2.000000
 -0.133333 -0.466667  0.066667      2.000000
  0.133333 -0.066667  0.466667      2.000000
  0.066667 -0.133333 -0.466667      2.000000
  0.466667  0.133333 -0.066667      2.000000
 -0.466667  0.066667 -0.133333      2.000000
 -0.066667  0.466667  0.133333      2.000000
 -0.400000 -0.400000  0.066667      2.000000
  0.400000 -0.066667  0.400000      2.000000
  0.066667 -0.400000 -0.400000      2.000000
 -0.333333 -0.400000  0.066667      2.000000
  0.333333 -0.066667  0.400000      2.000000
  0.066667 -0.333333 -0.400000      2.000000
  0.400000  0.333333 -0.066667      2.000000
 -0.400000  0.066667 -0.333333      2.000000
 -0.066667  0.400000  0.333333      2.000000
 -0.266667 -0.400000  0.066667      2.000000
  0.266667 -0.066667  0.400000      2.000000
  0.066667 -0.266667 -0.400000      2.000000
  0.400000  0.266667 -0.066667      2.000000
 -0.400000  0.066667 -0.266667      2.000000
 -0.066667  0.400000  0.266667      2.000000
 -0.200000 -0.400000  0.066667      2.000000
  0.200000 -0.066667  0.400000      2.000000
  0.066667 -0.200000 -0.400000      2.000000
  0.400000  0.200000 -0.066667      2.000000
 -0.400000  0.066667 -0.200000      2.000000
 -0.066667  0.400000  0.200000      2.000000
 -0.133333 -0.400000  0.066667      2.000000
  0.133333 -0.066667  0.400000      2.000000
  0.066667 -0.133333 -0.400000      2.000000
  0.400000  0.133333 -0.066667      2.000000
 -0.400000  0.066667 -0.133333      2.000000
 -0.066667  0.400000  0.133333      2.000000
 -0.333333 -0.333333  0.066667      2.000000
  0.333333 -0.066667  0.333333      2.000000
  0.066667 -0.333333 -0.333333      2.000000
 -0.266667 -0.333333  0.066667      2.000000
  0.266667 -0.066667  0.333333      2.000000
  0.066667 -0.266667 -0.333333      2.000000
  0.333333  0.266667 -0.066667      2.000000
 -0.333333  0.066667 -0.266667      2.000000
 -0.066667  0.333333  0.266667      2.000000
 -0.200000 -0.333333  0.066667      2.000000
  0.200000 -0.066667  0.333333      2.000000
  0.066667 -0.200000 -0.333333      2.000000
  0.333333  0.200000 -0.066667      2.000000
 -0.333333  0.066667 -0.200000      2.000000
 -0.066667  0.333333  0.200000      2.000000
 -0.133333 -0.333333  0.066667      2.000000
  0.133333 -0.066667  0.333333      2.000000
  0.066667 -0.133333 -0.333333      2.000000
  0.333333  0.133333 -0.066667      2.000000
 -0.333333  0.066667 -0.133333      2.000000
 -0.066667  0.333333  0.133333      2.000000
 -0.266667 -0.266667  0.066667      2.000000
  0.266667 -0.066667  0.266667      2.000000
  0.066667 -0.266667 -0.266667      2.000000
 -0.200000 -0.266667  0.066667      2.000000
  0.200000 -0.066667  0.266667      2.000000
  0.066667 -0.200000 -0.266667      2.000000
  0.266667  0.200000 -0.066667      2.000000
 -0.266667  0.066667 -0.200000      2.000000
 -0.066667  0.266667  0.200000      2.000000
 -0.133333 -0.266667  0.066667      2.000000
  0.133333 -0.066667  0.266667      2.000000
  0.066667 -0.133333 -0.266667      2.000000
  0.266667  0.133333 -0.066667      2.000000
 -0.266667  0.066667 -0.133333      2.000000
 -0.066667  0.266667  0.133333      2.000000
 -0.200000 -0.200000  0.066667      2.000000
  0.200000 -0.066667  0.200000      2.000000
  0.066667 -0.200000 -0.200000      2.000000
 -0.133333 -0.200000  0.066667      2.000000
  0.133333 -0.066667  0.200000      2.000000
  0.066667 -0.133333 -0.200000      2.000000
  0.200000  0.133333 -0.066667      2.000000
 -0.200000  0.066667 -0.133333      2.000000
 -0.066667  0.200000  0.133333      2.000000
 -0.133333 -0.133333  0.066667      2.000000
  0.133333 -0.066667  0.133333      2.000000
  0.066667 -0.133333 -0.133333      2.000000
  0.133333  0.133333  0.133333      2.000000
  0.200000  0.133333  0.133333      2.000000
  0.133333  0.200000  0.133333      2.000000
  0.133333  0.133333  0.200000      2.000000
  0.266667  0.133333  0.133333      2.000000
  0.133333  0.266667  0.133333      2.000000
  0.133333  0.133333  0.266667      2.000000
  0.333333  0.133333  0.133333      2.000000
  0.133333  0.333333  0.133333      2.000000
  0.133333  0.133333  0.333333      2.000000
  0.400000  0.133333  0.133333      2.000000
  0.133333  0.400000  0.133333      2.000000
  0.133333  0.133333  0.400000      2.000000
  0.466667  0.133333  0.133333      2.000000
  0.133333  0.466667  0.133333      2.000000
  0.133333  0.133333  0.466667      2.000000
 -0.466667  0.133333  0.133333      2.000000
  0.133333 -0.466667  0.133333      2.000000
  0.133333  0.133333 -0.466667      2.000000
 -0.400000  0.133333  0.133333      2.000000
  0.133333 -0.400000  0.133333      2.000000
  0.133333  0.133333 -0.400000      2.000000
 -0.333333  0.133333  0.133333      2.000000
  0.133333 -0.333333  0.133333      2.000000
  0.133333  0.133333 -0.333333      2.000000
 -0.266667  0.133333  0.133333      2.000000
  0.133333 -0.266667  0.133333      2.000000
  0.133333  0.133333 -0.266667      2.000000
 -0.200000  0.133333  0.133333      2.000000
  0.133333 -0.200000  0.133333      2.000000
  0.133333  0.133333 -0.200000      2.000000
 -0.133333  0.133333  0.133333      2.000000
  0.133333 -0.133333  0.133333      2.000000
  0.133333  0.133333 -0.133333      2.000000
  0.200000  0.200000  0.133333      2.000000
 -0.200000 -0.133333 -0.200000      2.000000
  0.133333  0.200000  0.200000      2.000000
  0.266667  0.200000  0.133333      2.000000
 -0.266667 -0.133333 -0.200000      2.000000
  0.133333  0.266667  0.200000      2.000000
 -0.200000 -0.266667 -0.133333      2.000000
  0.200000  0.133333  0.266667      2.000000
 -0.133333 -0.200000 -0.266667      2.000000
  0.333333  0.200000  0.133333      2.000000
 -0.333333 -0.133333 -0.200000      2.000000
  0.133333  0.333333  0.200000      2.000000
 -0.200000 -0.333333 -0.133333      2.000000
  0.200000  0.133333  0.333333      2.000000
 -0.133333 -0.200000 -0.333333      2.000000
  0.400000  0.200000  0.133333      2.000000
 -0.400000 -0.133333 -0.200000      2.000000
  0.133333  0.400000  0.200000      2.000000
 -0.200000 -0.400000 -0.133333      2.000000
  0.200000  0.133333  0.400000      2.000000
 -0.133333 -0.200000 -0.400000      2.000000
  0.466667  0.200000  0.133333      2.000000
 -0.466667 -0.133333 -0.200000      2.000000
  0.133333  0.466667  0.200000      2.000000
 -0.200000 -0.466667 -0.133333      2.000000
  0.200000  0.133333  0.466667      2.000000
 -0.133333 -0.200000 -0.466667      2.000000
 -0.466667  0.200000  0.133333      2.000000
  0.466667 -0.133333 -0.200000      2.000000
  0.133333 -0.466667  0.200000      2.000000
 -0.200000  0.466667 -0.133333      2.000000
  0.200000  0.133333 -0.466667      2.000000
 -0.133333 -0.200000  0.466667      2.000000
 -0.400000  0.200000  0.133333      2.000000
  0.400000 -0.133333 -0.200000      2.000000
  0.133333 -0.400000  0.200000      2.000000
 -0.200000  0.400000 -0.133333      2.000000
  0.200000  0.133333 -0.400000      2.000000
 -0.133333 -0.200000  0.400000      2.000000
 -0.333333  0.200000  0.133333      2.000000
  0.333333 -0.133333 -0.200000      2.000000
  0.133333 -0.333333  0.200000      2.000000
 -0.200000  0.333333 -0.133333      2.000000
  0.200000  0.133333 -0.333333      2.000000
 -0.133333 -0.200000  0.333333      2.000000
 -0.266667  0.200000  0.133333      2.000000
  0.266667 -0.133333 -0.200000      2.000000
  0.133333 -0.266667  0.200000      2.000000
 -0.200000  0.266667 -0.133333      2.000000
  0.200000  0.133333 -0.266667      2.000000
 -0.133333 -0.200000  0.266667      2.000000
 -0.200000  0.200000  0.133333      2.000000
  0.200000 -0.133333 -0.200000      2.000000
  0.133333 -0.200000  0.200000      2.000000
 -0.200000  0.200000 -0.133333      2.000000
  0.200000  0.133333 -0.200000      2.000000
 -0.133333 -0.200000  0.200000      2.000000
 -0.133333  0.200000  0.133333      2.000000
  0.133333 -0.133333 -0.200000      2.000000
  0.133333 -0.133333  0.200000      2.000000
 -0.200000  0.133333 -0.133333      2.000000
  0.200000  0.133333 -0.133333      2.000000
 -0.133333 -0.200000  0.133333      2.000000
  0.266667  0.266667  0.133333      2.000000
 -0.266667 -0.133333 -0.266667      2.000000
  0.133333  0.266667  0.266667      2.000000
  0.333333  0.266667  0.133333      2.000000
 -0.333333 -0.133333 -0.266667      2.000000
  0.133333  0.333333  0.266667      2.000000
 -0.266667 -0.333333 -0.133333      2.000000
  0.266667  0.133333  0.333333      2.000000
 -0.133333 -0.266667 -0.333333      2.000000
  0.400000  0.266667  0.133333      2.000000
 -0.400000 -0.133333 -0.266667      2.000000
  0.133333  0.400000  0.266667      2.000000
 -0.266667 -0.400000 -0.133333      2.000000
  0.266667  0.133333  0.400000      2.000000
 -0.133333 -0.266667 -0.400000      2.000000
  0.466667  0.266667  0.133333      2.000000
 -0.466667 -0.133333 -0.266667      2.000000
  0.133333  0.466667  0.266667      2.000000
 -0.266667 -0.466667 -0.133333      2.000000
  0.266667  0.133333  0.466667      2.000000
 -0.133333 -0.266667 -0.466667      2.000000
 -0.466667  0.266667  0.133333      2.000000
  0.466667 -0.133333 -0.266667      2.000000
  0.133333 -0.466667  0.266667      2.000000
 -0.266667  0.466667 -0.133333      2.000000
  0.266667  0.133333 -0.466667      2.000000
 -0.133333 -0.266667  0.466667      2.000000
 -0.400000  0.266667  0.133333      2.000000
  0.400000 -0.133333 -0.266667      2.000000
  0.133333 -0.400000  0.266667      2.000000
 -0.266667  0.400000 -0.133333      2.000000
  0.266667  0.133333 -0.400000      2.000000
 -0.133333 -0.266667  0.400000      2.000000
 -0.333333  0.266667  0.133333      2.000000
  0.333333 -0.133333 -0.266667      2.000000
  0.133333 -0.333333  0.266667      2.000000
 -0.266667  0.333333 -0.133333      2.000000
  0.266667  0.133333 -0.333333      2.000000
 -0.133333 -0.266667  0.333333      2.000000
 -0.266667  0.266667  0.133333      2.000000
  0.266667 -0.133333 -0.266667      2.000000
  0.133333 -0.266667  0.266667      2.000000
 -0.266667  0.266667 -0.133333      2.000000
  0.266667  0.133333 -0.266667      2.000000
 -0.133333 -0.266667  0.266667      2.000000
 -0.200000  0.266667  0.133333      2.000000
  0.200000 -0.133333 -0.266667      2.000000
  0.133333 -0.200000  0.266667      2.000000
 -0.266667  0.200000 -0.133333      2.000000
  0.266667  0.133333 -0.200000      2.000000
 -0.133333 -0.266667  0.200000      2.000000
 -0.133333  0.266667  0.133333      2.000000
  0.133333 -0.133333 -0.266667      2.000000
  0.133333 -0.133333  0.266667      2.000000
 -0.266667  0.133333 -0.133333      2.000000
  0.266667  0.133333 -0.133333      2.000000
 -0.133333 -0.266667  0.133333      2.000000
  0.333333  0.333333  0.133333      2.000000
 -0.333333 -0.133333 -0.333333      2.000000
  0.133333  0.333333  0.333333      2.000000
  0.400000  0.333333  0.133333      2.000000
 -0.400000 -0.133333 -0.333333      2.000000
  0.133333  0.400000  0.333333      2.000000
 -0.333333 -0.400000 -0.133333      2.000000
  0.333333  0.133333  0.400000      2.000000
 -0.133333 -0.333333 -0.400000      2.000000
  0.466667  0.333333  0.133333      2.000000
 -0.466667 -0.133333 -0.333333      2.000000
  0.133333  0.466667  0.333333      2.000000
 -0.333333 -0.466667 -0.133333      2.000000
  0.333333  0.133333  0.466667      2.000000
 -0.133333 -0.333333 -0.466667      2.000000
 -0.466667  0.333333  0.133333      2.000000
  0.466667 -0.133333 -0.333333      2.000000
  0.133333 -0.466667  0.333333      2.000000
 -0.333333  0.466667 -0.133333      2.000000
  0.333333  0.133333 -0.466667      2.000000
 -0.133333 -0.333333  0.466667      2.000000
 -0.400000  0.333333  0.133333      2.000000
  0.400000 -0.133333 -0.333333      2.000000
  0.133333 -0.400000  0.333333      2.000000
 -0.333333  0.400000 -0.133333      2.000000
  0.333333  0.133333 -0.400000      2.000000
 -0.133333 -0.333333  0.400000      2.000000
 -0.333333  0.333333  0.133333      2.000000
  0.333333 -0.133333 -0.333333      2.000000
  0.133333 -0.333333  0.333333      2.000000
 -0.333333  0.333333 -0.133333      2.000000
  0.333333  0.133333 -0.333333      2.000000
 -0.133333 -0.333333  0.333333      2.000000
 -0.266667  0.333333  0.133333      2.000000
  0.266667 -0.133333 -0.333333      2.000000
  0.133333 -0.266667  0.333333      2.000000
 -0.333333  0.266667 -0.133333      2.000000
  0.333333  0.133333 -0.266667      2.000000
 -0.133333 -0.333333  0.266667      2.000000
 -0.200000  0.333333  0.133333      2.000000
  0.200000 -0.133333 -0.333333      2.000000
  0.133333 -0.200000  0.333333      2.000000
 -0.333333  0.200000 -0.133333      2.000000
  0.333333  0.133333 -0.200000      2.000000
 -0.133333 -0.333333  0.200000      2.000000
 -0.133333  0.333333  0.133333      2.000000
  0.133333 -0.133333 -0.333333      2.000000
  0.133333 -0.133333  0.333333      2.000000
 -0.333333  0.133333 -0.133333      2.000000
  0.333333  0.133333 -0.133333      2.000000
 -0.133333 -0.333333  0.133333      2.000000
  0.400000  0.400000  0.133333      2.000000
 -0.400000 -0.133333 -0.400000      2.000000
  0.133333  0.400000  0.400000      2.000000
  0.466667  0.400000  0.133333      2.000000
 -0.466667 -0.133333 -0.400000      2.000000
  0.133333  0.466667  0.400000      2.000000
 -0.400000 -0.466667 -0.133333      2.000000
  0.400000  0.133333  0.466667      2.000000
 -0.133333 -0.400000 -0.466667      2.000000
 -0.466667  0.400000  0.133333      2.000000
  0.466667 -0.133333 -0.400000      2.000000
  0.133333 -0.466667  0.400000      2.000000
 -0.400000  0.466667 -0.133333      2.000000
  0.400000  0.133333 -0.466667      2.000000
 -0.133333 -0.400000  0.466667      2.000000
 -0.400000  0.400000  0.133333      2.000000
  0.400000 -0.133333 -0.400000      2.000000
  0.133333 -0.400000  0.400000      2.000000
 -0.400000  0.400000 -0.133333      2.000000
  0.400000  0.133333 -0.400000      2.000000
 -0.133333 -0.400000  0.400000      2.000000
 -0.333333  0.400000  0.133333      2.000000
  0.333333 -0.133333 -0.400000      2.000000
  0.133333 -0.333333  0.400000      2.000000
 -0.400000  0.333333 -0.133333      2.000000
  0.400000  0.133333 -0.333333      2.000000
 -0.133333 -0.400000  0.333333      2.000000
 -0.266667  0.400000  0.133333      2.000000
  0.266667 -0.133333 -0.400000      2.000000
  0.133333 -0.266667  0.400000      2.000000
 -0.400000  0.266667 -0.133333      2.000000
  0.400000  0.133333 -0.266667      2.000000
 -0.133333 -0.400000  0.266667      2.000000
 -0.200000  0.400000  0.133333      2.000000
  0.200000 -0.133333 -0.400000      2.000000
  0.133333 -0.200000  0.400000      2.000000
 -0.400000  0.200000 -0.133333      2.000000
  0.400000  0.133333 -0.200000      2.000000
 -0.133333 -0.400000  0.200000      2.000000
 -0.133333  0.400000  0.133333      2.000000
  0.133333 -0.133333 -0.400000      2.000000
  0.133333 -0.133333  0.400000      2.000000
 -0.400000  0.133333 -0.133333      2.000000
  0.400000  0.133333 -0.133333      2.000000
 -0.133333 -0.400000  0.133333      2.000000
  0.466667  0.466667  0.133333      2.000000
 -0.466667 -0.133333 -0.466667      2.000000
  0.133333  0.466667  0.466667      2.000000
 -0.466667  0.466667  0.133333      2.000000
  0.466667 -0.133333 -0.466667      2.000000
  0.133333 -0.466667  0.466667      2.000000
 -0.466667  0.466667 -0.133333      2.000000
  0.466667  0.133333 -0.466667      2.000000
 -0.133333 -0.466667  0.466667      2.000000
 -0.400000  0.466667  0.133333      2.000000
  0.400000 -0.133333 -0.466667      2.000000
  0.133333 -0.400000  0.466667      2.000000
 -0.466667  0.400000 -0.133333      2.000000
  0.466667  0.133333 -0.400000      2.000000
 -0.133333 -0.466667  0.400000      2.000000
 -0.333333  0.466667  0.133333      2.000000
  0.333333 -0.133333 -0.466667      2.000000
  0.133333 -0.333333  0.466667      2.000000
 -0.466667  0.333333 -0.133333      2.000000
  0.466667  0.133333 -0.333333      2.000000
 -0.133333 -0.466667  0.333333      2.000000
 -0.266667  0.466667  0.133333      2.000000
  0.266667 -0.133333 -0.466667      2.000000
  0.133333 -0.266667  0.466667      2.000000
 -0.466667  0.266667 -0.133333      2.000000
  0.466667  0.133333 -0.266667      2.000000
 -0.133333 -0.466667  0.266667      2.000000
 -0.200000  0.466667  0.133333      2.000000
  0.200000 -0.133333 -0.466667      2.000000
  0.133333 -0.200000  0.466667      2.000000
 -0.466667  0.200000 -0.133333      2.000000
  0.466667  0.133333 -0.200000      2.000000
 -0.133333 -0.466667  0.200000      2.000000
 -0.133333  0.466667  0.133333      2.000000
  0.133333 -0.133333 -0.466667      2.000000
  0.133333 -0.133333  0.466667      2.000000
 -0.466667  0.133333 -0.133333      2.000000
  0.466667  0.133333 -0.133333      2.000000
 -0.133333 -0.466667  0.133333      2.000000
 -0.466667 -0.466667  0.133333      2.000000
  0.466667 -0.133333  0.466667      2.000000
  0.133333 -0.466667 -0.466667      2.000000
 -0.400000 -0.466667  0.133333      2.000000
  0.400000 -0.133333  0.466667      2.000000
  0.133333 -0.400000 -0.466667      2.000000
  0.466667  0.400000 -0.133333      2.000000
 -0.466667  0.133333 -0.400000      2.000000
 -0.133333  0.466667  0.400000      2.000000
 -0.333333 -0.466667  0.133333      2.000000
  0.333333 -0.133333  0.466667      2.000000
  0.133333 -0.333333 -0.466667      2.000000
  0.466667  0.333333 -0.133333      2.000000
 -0.466667  0.133333 -0.333333      2.000000
 -0.133333  0.466667  0.333333      2.000000
 -0.266667 -0.466667  0.133333      2.000000
  0.266667 -0.133333  0.466667      2.000000
  0.133333 -0.266667 -0.466667      2.000000
  0.466667  0.266667 -0.133333      2.000000
 -0.466667  0.133333 -0.266667      2.000000
 -0.133333  0.466667  0.266667      2.000000
 -0.200000 -0.466667  0.133333      2.000000
  0.200000 -0.133333  0.466667      2.000000
  0.133333 -0.200000 -0.466667      2.000000
  0.466667  0.200000 -0.133333      2.000000
 -0.466667  0.133333 -0.200000      2.000000
 -0.133333  0.466667  0.200000      2.000000
 -0.400000 -0.400000  0.133333      2.000000
  0.400000 -0.133333  0.400000      2.000000
  0.133333 -0.400000 -0.400000      2.000000
 -0.333333 -0.400000  0.133333      2.000000
  0.333333 -0.133333  0.400000      2.000000
  0.133333 -0.333333 -0.400000      2.000000
  0.400000  0.333333 -0.133333      2.000000
 -0.400000  0.133333 -0.333333      2.000000
 -0.133333  0.400000  0.333333      2.000000
 -0.266667 -0.400000  0.133333      2.000000
  0.266667 -0.133333  0.400000      2.000000
  0.133333 -0.266667 -0.400000      2.000000
  0.400000  0.266667 -0.133333      2.000000
 -0.400000  0.133333 -0.266667      2.000000
 -0.133333  0.400000  0.266667      2.000000
 -0.200000 -0.400000  0.133333      2.000000
  0.200000 -0.133333  0.400000      2.000000
  0.133333 -0.200000 -0.400000      2.000000
  0.400000  0.200000 -0.133333      2.000000
 -0.400000  0.133333 -0.200000      2.000000
 -0.133333  0.400000  0.200000      2.000000
 -0.333333 -0.333333  0.133333      2.000000
  0.333333 -0.133333  0.333333      2.000000
  0.133333 -0.333333 -0.333333      2.000000
 -0.266667 -0.333333  0.133333      2.000000
  0.266667 -0.133333  0.333333      2.000000
  0.133333 -0.266667 -0.333333      2.000000
  0.333333  0.266667 -0.133333      2.000000
 -0.333333  0.133333 -0.266667      2.000000
 -0.133333  0.333333  0.266667      2.000000
 -0.200000 -0.333333  0.133333      2.000000
  0.200000 -0.133333  0.333333      2.000000
  0.133333 -0.200000 -0.333333      2.000000
  0.333333  0.200000 -0.133333      2.000000
 -0.333333  0.133333 -0.200000      2.000000
 -0.133333  0.333333  0.200000      2.000000
 -0.266667 -0.266667  0.133333      2.000000
  0.266667 -0.133333  0.266667      2.000000
  0.133333 -0.266667 -0.266667      2.000000
 -0.200000 -0.266667  0.133333      2.000000
  0.200000 -0.133333  0.266667      2.000000
  0.133333 -0.200000 -0.266667      2.000000
  0.266667  0.200000 -0.133333      2.000000
 -0.266667  0.133333 -0.200000      2.000000
 -0.133333  0.266667  0.200000      2.000000
 -0.200000 -0.200000  0.133333      2.000000
  0.200000 -0.133333  0.200000      2.000000
  0.133333 -0.200000 -0.200000      2.000000
  0.200000  0.200000  0.200000      2.000000
  0.266667  0.200000  0.200000      2.000000
  0.200000  0.266667  0.200000      2.000000
  0.200000  0.200000  0.266667      2.000000
  0.333333  0.200000  0.200000      2.000000
  0.200000  0.333333  0.200000      2.000000
  0.200000  0.200000  0.333333      2.000000
  0.400000  0.200000  0.200000      2.000000
  0.200000  0.400000  0.200000      2.000000
  0.200000  0.200000  0.400000      2.000000
  0.466667  0.200000  0.200000      2.000000
  0.200000  0.466667  0.200000      2.000000
  0.200000  0.200000  0.466667      2.000000
 -0.466667  0.200000  0.200000      2.000000
  0.200000 -0.466667  0.200000      2.000000
  0.200000  0.200000 -0.466667      2.000000
 -0.400000  0.200000  0.200000      2.000000
  0.200000 -0.400000  0.200000      2.000000
  0.200000  0.200000 -0.400000      2.000000
 -0.333333  0.200000  0.200000      2.000000
  0.200000 -0.333333  0.200000      2.000000
  0.200000  0.200000 -0.333333      2.000000
 -0.266667  0.200000  0.200000      2.000000
  0.200000 -0.266667  0.200000      2.000000
  0.200000  0.200000 -0.266667      2.000000
 -0.200000  0.200000  0.200000      2.000000
  0.200000 -0.200000  0.200000      2.000000
  0.200000  0.200000 -0.200000      2.000000
  0.266667  0.266667  0.200000      2.000000
 -0.266667 -0.200000 -0.266667      2.000000
  0.200000  0.266667  0.266667      2.000000
  0.333333  0.266667  0.200000      2.000000
 -0.333333 -0.200000 -0.266667      2.000000
  0.200000  0.333333  0.266667      2.000000
 -0.266667 -0.333333 -0.200000      2.000000
  0.266667  0.200000  0.333333      2.000000
 -0.200000 -0.266667 -0.333333      2.000000
  0.400000  0.266667  0.200000      2.000000
 -0.400000 -0.200000 -0.266667      2.000000
  0.200000  0.400000  0.266667      2.000000
 -0.266667 -0.400000 -0.200000      2.000000
  0.266667  0.200000  0.400000      2.000000
 -0.200000 -0.266667 -0.400000      2.000000
  0.466667  0.266667  0.200000      2.000000
 -0.466667 -0.200000 -0.266667      2.000000
  0.200000  0.466667  0.266667      2.000000
 -0.266667 -0.466667 -0.200000      2.000000
  0.266667  0.200000  0.466667      2.000000
 -0.200000 -0.266667 -0.466667      2.000000
 -0.466667  0.266667  0.200000      2.000000
  0.466667 -0.200000 -0.266667      2.000000
  0.200000 -0.466667  0.266667      2.000000
 -0.266667  0.466667 -0.200000      2.000000
  0.266667  0.200000 -0.466667      2.000000
 -0.200000 -0.266667  0.466667      2.000000
 -0.400000  0.266667  0.200000      2.000000
  0.400000 -0.200000 -0.266667      2.000000
  0.200000 -0.400000  0.266667      2.000000
 -0.266667  0.400000 -0.200000      2.000000
  0.266667  0.200000 -0.400000      2.000000
 -0.200000 -0.266667  0.400000      2.000000
 -0.333333  0.266667  0.200000      2.000000
  0.333333 -0.200000 -0.266667      2.000000
  0.200000 -0.333333  0.266667      2.000000
 -0.266667  0.333333 -0.200000      2.000000
  0.266667  0.200000 -0.333333      2.000000
 -0.200000 -0.266667  0.333333      2.000000
 -0.266667  0.266667  0.200000      2.000000
  0.266667 -0.200000 -0.266667      2.000000
  0.200000 -0.266667  0.266667      2.000000
 -0.266667  0.266667 -0.200000      2.000000
  0.266667  0.200000 -0.266667      2.000000
 -0.200000 -0.266667  0.266667      2.000000
 -0.200000  0.266667  0.200000      2.000000
  0.200000 -0.200000 -0.266667      2.000000
  0.200000 -0.200000  0.266667      2.000000
 -0.266667  0.200000 -0.200000      2.000000
  0.266667  0.200000 -0.200000      2.000000
 -0.200000 -0.266667  0.200000      2.000000
  0.333333  0.333333  0.200000      2.000000
 -0.333333 -0.200000 -0.333333      2.000000
  0.200000  0.333333  0.333333      2.000000
  0.400000  0.333333  0.200000      2.000000
 -0.400000 -0.200000 -0.333333      2.000000
  0.200000  0.400000  0.333333      2.000000
 -0.333333 -0.400000 -0.200000      2.000000
  0.333333  0.200000  0.400000      2.000000
 -0.200000 -0.333333 -0.400000      2.000000
  0.466667  0.333333  0.200000      2.000000
 -0.466667 -0.200000 -0.333333      2.000000
  0.200000  0.466667  0.333333      2.000000
 -0.333333 -0.466667 -0.200000      2.000000
  0.333333  0.200000  0.466667      2.000000
 -0.200000 -0.333333 -0.466667      2.000000
 -0.466667  0.333333  0.200000      2.000000
  0.466667 -0.200000 -0.333333      2.000000
  0.200000 -0.466667  0.333333      2.000000
 -0.333333  0.466667 -0.200000      2.000000
  0.333333  0.200000 -0.466667      2.000000
 -0.200000 -0.333333  0.466667      2.000000
 -0.400000  0.333333  0.200000      2.000000
  0.400000 -0.200000 -0.333333      2.000000
  0.200000 -0.400000  0.333333      2.000000
 -0.333333  0.400000 -0.200000      2.000000
  0.333333  0.200000 -0.400000      2.000000
 -0.200000 -0.333333  0.400000      2.000000
 -0.333333  0.333333  0.200000      2.000000
  0.333333 -0.200000 -0.333333      2.000000
  0.200000 -0.333333  0.333333      2.000000
 -0.333333  0.333333 -0.200000      2.000000
  0.333333  0.200000 -0.333333      2.000000
 -0.200000 -0.333333  0.333333      2.000000
 -0.266667  0.333333  0.200000      2.000000
  0.266667 -0.200000 -0.333333      2.000000
  0.200000 -0.266667  0.333333      2.000000
 -0.333333  0.266667 -0.200000      2.000000
  0.333333  0.200000 -0.266667      2.000000
 -0.200000 -0.333333  0.266667      2.000000
[...]
     25       1.9911      2.00000
     26       2.2522      2.00000
     27       2.3473      2.00000
     28       2.9555      2.00000
     29       3.5525      2.00000
     30       3.6369      2.00000
     31       4.1575      2.00000
     32       5.6525      0.00000
     33       6.3421      0.00000
     34       7.7632      0.00000
     35       8.0040      0.00000
     36       8.4299      0.00000
     37       8.8752      0.00000
     38       9.1077      0.00000
     39       9.8693      0.00000
     40       9.9036      0.00000

 k-point  1684 :       0.4000   -0.4667   -0.4667
  band No.  band energies     occupation 
      1     -11.1429      2.00000
      2     -10.9577      2.00000
      3     -10.9069      2.00000
      4     -10.7612      2.00000
      5     -10.7469      2.00000
      6     -10.4766      2.00000
      7     -10.3775      2.00000
      8     -10.3376      2.00000
      9     -10.2606      2.00000
     10     -10.2459      2.00000
     11      -9.6035      2.00000
     12      -9.1062      2.00000
     13      -8.0828      2.00000
     14      -7.4224      2.00000
     15      -2.1076      2.00000
     16      -1.6613      2.00000
     17      -1.6282      2.00000
     18      -1.2578      2.00000
     19      -1.2249      2.00000
     20      -1.1721      2.00000
     21      -0.2258      2.00000
     22       1.0764      2.00000
     23       1.5633      2.00000
     24       1.7234      2.00000
     25       1.9911      2.00000
     26       2.2522      2.00000
     27       2.3473      2.00000
     28       2.9555      2.00000
     29       3.5525      2.00000
     30       3.6369      2.00000
     31       4.1575      2.00000
     32       5.6525      0.00000
     33       6.3421      0.00000
     34       7.7632      0.00000
     35       8.0040      0.00000
     36       8.4299      0.00000
     37       8.8752      0.00000
     38       9.1077      0.00000
     39       9.8693      0.00000
     40       9.9036      0.00000

 k-point  1685 :       0.4667    0.4667    0.4667
  band No.  band energies     occupation 
      1     -11.1169      2.00000
      2     -10.9223      2.00000
      3     -10.9223      2.00000
      4     -10.7482      2.00000
      5     -10.7482      2.00000
      6     -10.3904      2.00000
      7     -10.3904      2.00000
      8     -10.3780      2.00000
      9     -10.2486      2.00000
     10     -10.2486      2.00000
     11      -9.8067      2.00000
     12      -9.2416      2.00000
     13      -8.2333      2.00000
     14      -7.5169      2.00000
     15      -2.1549      2.00000
     16      -1.6643      2.00000
     17      -1.6643      2.00000
     18      -1.2246      2.00000
     19      -1.2246      2.00000
     20      -1.1943      2.00000
     21      -0.2042      2.00000
     22       1.9335      2.00000
     23       1.9335      2.00000
     24       2.0280      2.00000
     25       2.6021      2.00000
     26       2.6021      2.00000
     27       2.8589      2.00000
     28       2.8589      2.00000
     29       3.0177      2.00000
     30       4.3896      1.99991
     31       4.3896      1.99991
     32       5.2998      0.00000
     33       5.9141      0.00000
     34       7.1305      0.00000
     35       7.5445      0.00000
     36       8.8206      0.00000
     37       8.8206      0.00000
     38       8.9516      0.00000
     39       9.5028      0.00000
     40       9.5028      0.00000

 k-point  1686 :      -0.4667    0.4667    0.4667
  band No.  band energies     occupation 
      1     -11.1223      2.00000
      2     -10.9340      2.00000
      3     -10.9182      2.00000
      4     -10.7523      2.00000
      5     -10.7480      2.00000
      6     -10.4190      2.00000
      7     -10.3869      2.00000
      8     -10.3614      2.00000
      9     -10.2526      2.00000
     10     -10.2481      2.00000
     11      -9.7526      2.00000
     12      -9.2076      2.00000
     13      -8.1928      2.00000
     14      -7.4927      2.00000
     15      -2.1415      2.00000
     16      -1.6641      2.00000
     17      -1.6549      2.00000
     18      -1.2352      2.00000
     19      -1.2248      2.00000
     20      -1.1834      2.00000
     21      -0.2056      2.00000
     22       1.6470      2.00000
     23       1.8770      2.00000
     24       1.9967      2.00000
     25       2.2513      2.00000
     26       2.4837      2.00000
     27       2.7164      2.00000
     28       2.9098      2.00000
     29       3.2860      2.00000
     30       4.1364      2.00000
     31       4.3267      2.00000
     32       5.4297      0.00000
     33       6.0587      0.00000
     34       7.3480      0.00000
     35       7.7546      0.00000
     36       8.5208      0.00000
     37       8.9007      0.00000
     38       9.0094      0.00000
     39       9.5698      0.00000
     40       9.6092      0.00000

 k-point  1687 :       0.4667   -0.4667    0.4667
  band No.  band energies     occupation 
      1     -11.1223      2.00000
      2     -10.9340      2.00000
      3     -10.9182      2.00000
      4     -10.7523      2.00000
      5     -10.7480      2.00000
      6     -10.4190      2.00000
      7     -10.3869      2.00000
      8     -10.3614      2.00000
      9     -10.2526      2.00000
     10     -10.2481      2.00000
     11      -9.7526      2.00000
     12      -9.2076      2.00000
     13      -8.1928      2.00000
     14      -7.4927      2.00000
     15      -2.1415      2.00000
     16      -1.6641      2.00000
     17      -1.6549      2.00000
     18      -1.2352      2.00000
     19      -1.2248      2.00000
     20      -1.1834      2.00000
     21      -0.2056      2.00000
     22       1.6470      2.00000
     23       1.8770      2.00000
     24       1.9967      2.00000
     25       2.2513      2.00000
     26       2.4837      2.00000
     27       2.7164      2.00000
     28       2.9098      2.00000
     29       3.2860      2.00000
     30       4.1364      2.00000
     31       4.3267      2.00000
     32       5.4297      0.00000
     33       6.0587      0.00000
     34       7.3480      0.00000
     35       7.7546      0.00000
     36       8.5208      0.00000
     37       8.9007      0.00000
     38       9.0094      0.00000
     39       9.5698      0.00000
     40       9.6092      0.00000

 k-point  1688 :       0.4667    0.4667   -0.4667
  band No.  band energies     occupation 
      1     -11.1223      2.00000
      2     -10.9340      2.00000
      3     -10.9182      2.00000
      4     -10.7523      2.00000
      5     -10.7480      2.00000
      6     -10.4190      2.00000
      7     -10.3869      2.00000
      8     -10.3614      2.00000
      9     -10.2526      2.00000
     10     -10.2481      2.00000
     11      -9.7526      2.00000
     12      -9.2076      2.00000
     13      -8.1928      2.00000
     14      -7.4927      2.00000
     15      -2.1415      2.00000
     16      -1.6641      2.00000
     17      -1.6549      2.00000
     18      -1.2352      2.00000
     19      -1.2248      2.00000
     20      -1.1834      2.00000
     21      -0.2056      2.00000
     22       1.6470      2.00000
     23       1.8770      2.00000
     24       1.9967      2.00000
     25       2.2513      2.00000
     26       2.4837      2.00000
     27       2.7164      2.00000
     28       2.9098      2.00000
     29       3.2860      2.00000
     30       4.1364      2.00000
     31       4.3267      2.00000
     32       5.4297      0.00000
     33       6.0587      0.00000
     34       7.3480      0.00000
     35       7.7546      0.00000
     36       8.5208      0.00000
     37       8.9007      0.00000
     38       9.0094      0.00000
     39       9.5698      0.00000
     40       9.6092      0.00000


--------------------------------------------------------------------------------------------------------


 soft charge-density along one line, spin component           1
         0         1         2         3         4         5         6         7         8         9
 total charge-density along one line
 
 pseudopotential strength for first ion, spin component:           1
 -7.679   0.000  -0.000  -0.000  -0.000   0.000   0.002  -0.000  -0.000  -0.000  -8.162   0.000  -0.000  -0.000  -0.000   0.000
 -0.000  -0.000  -7.731  -0.000   0.000  -0.000   0.000  -0.000   0.002  -0.000  -0.000  -0.000  -8.212  -0.000   0.000  -0.000
 -0.000   0.000   0.000  -0.000  -7.750  -0.000  -0.000  -0.000  -0.000   0.000  -0.000   0.000   0.000  -0.000  -8.230  -0.000
  0.002  -0.000   0.000  -0.000  -0.000  -0.000  -7.731  -0.000  -0.000  -0.000   0.002  -0.000   0.000  -0.000  -0.000  -0.000
 -0.000  -0.000   0.002  -0.000  -0.000   0.000  -0.000  -0.000  -7.679   0.000  -0.000  -0.000   0.002  -0.000  -0.000   0.000
 -8.162   0.000  -0.000  -0.000  -0.000   0.000   0.002  -0.000  -0.000  -0.000  -8.563   0.000  -0.000  -0.000  -0.000   0.000
 -0.000  -0.000  -8.212  -0.000   0.000  -0.000   0.000  -0.000   0.002  -0.000  -0.000  -0.000  -8.611  -0.000   0.000  -0.000
 -0.000   0.000   0.000  -0.000  -8.230  -0.000  -0.000  -0.000  -0.000   0.000  -0.000   0.000   0.000  -0.000  -8.627  -0.000
  0.002  -0.000   0.000  -0.000  -0.000  -0.000  -8.212  -0.000  -0.000  -0.000   0.002  -0.000   0.000  -0.000  -0.000  -0.000
 -0.000  -0.000   0.002  -0.000  -0.000   0.000  -0.000  -0.000  -8.162   0.000  -0.000  -0.000   0.002  -0.000  -0.000   0.000
 -0.000  -0.000  -0.000  -0.000  -0.001  -0.000   0.000  -0.000  -0.000  -0.000  -0.000  -0.000  -0.000  -0.000  -0.000  -0.000
  0.000  -0.000  -0.000  -0.000  -0.002  -0.000   0.000  -0.000  -0.000  -0.000   0.000  -0.000  -0.000  -0.000  -0.001  -0.000
 -0.000  -0.000   0.010   0.000   0.000   0.000   0.000  -0.000  -0.002   0.000  -0.000  -0.000   0.009   0.000   0.000   0.000
  0.000  -0.000  -0.000  -0.000   0.009   0.000  -0.000  -0.000  -0.000  -0.000   0.000  -0.000  -0.000  -0.000   0.009   0.000
 -0.002   0.000   0.000  -0.000   0.000   0.000   0.010   0.000  -0.000  -0.000  -0.002   0.000   0.000  -0.000   0.000   0.000
 -0.000  -0.000   0.010   0.000   0.000   0.000   0.000  -0.000  -0.001   0.000  -0.000  -0.000   0.010   0.000   0.000   0.000
  0.000  -0.000  -0.000  -0.000   0.010  -0.000  -0.000  -0.000  -0.000  -0.000   0.000  -0.000  -0.000  -0.000   0.010  -0.000
 -0.001   0.000   0.000  -0.000   0.000   0.000   0.010   0.000  -0.000  -0.000  -0.001   0.000   0.000  -0.000   0.000   0.000
 total augmentation occupancy for first ion, spin component:           1
  3.794   0.000  -0.000  -0.476   0.000  -1.804  -0.000   0.000   0.483  -0.000  -0.000  -0.000  -0.000   0.000  -0.662   0.000
  0.000   2.852  -0.000  -0.000  -0.476  -0.000  -0.828   0.000  -0.000   0.483   0.000  -0.000   0.293   0.000  -0.000  -0.043
 -0.000  -0.000   3.688   0.000   0.000   0.000   0.000  -1.646  -0.000  -0.000   0.609  -0.059   0.000  -0.360   0.000  -0.000
 -0.476  -0.000   0.000   2.852   0.000   0.483  -0.000  -0.000  -0.828  -0.000  -0.000   0.000   0.000  -0.000   0.293  -0.000
  0.000  -0.476   0.000   0.000   3.794  -0.000   0.483  -0.000  -0.000  -1.804   0.000  -0.000  -0.662  -0.000  -0.000   0.096
 -1.804  -0.000   0.000   0.483  -0.000   1.806   0.000  -0.000  -0.490   0.000   0.000  -0.000   0.000  -0.000   0.645  -0.000
 -0.000  -0.828   0.000  -0.000   0.483   0.000   0.797  -0.000   0.000  -0.490  -0.000   0.000  -0.291  -0.000   0.000   0.053
  0.000   0.000  -1.646  -0.000  -0.000  -0.000  -0.000   1.597   0.000   0.000  -0.618   0.098  -0.000   0.346  -0.000   0.000
  0.483  -0.000  -0.000  -0.828  -0.000  -0.490   0.000   0.000   0.797  -0.000   0.000  -0.000  -0.000   0.000  -0.291   0.000
 -0.000   0.483  -0.000  -0.000  -1.804   0.000  -0.490   0.000  -0.000   1.806  -0.000   0.000   0.645   0.000   0.000  -0.109
 -0.000   0.000   0.609  -0.000   0.000   0.000  -0.000  -0.618   0.000  -0.000   2.425  -0.545  -0.000  -0.071   0.000   0.000
 -0.000  -0.000  -0.059   0.000  -0.000  -0.000   0.000   0.098  -0.000   0.000  -0.545   0.152   0.000   0.010  -0.000  -0.000
 -0.000   0.293   0.000   0.000  -0.662   0.000  -0.291  -0.000  -0.000   0.645  -0.000   0.000   0.399  -0.000   0.000  -0.068
  0.000   0.000  -0.360  -0.000  -0.000  -0.000  -0.000   0.346   0.000   0.000  -0.071   0.010  -0.000   0.221   0.000   0.000
 -0.662  -0.000   0.000   0.293  -0.000   0.645   0.000  -0.000  -0.291   0.000   0.000  -0.000   0.000   0.000   0.399  -0.000
  0.000  -0.043  -0.000  -0.000   0.096  -0.000   0.053   0.000   0.000  -0.109   0.000  -0.000  -0.068   0.000  -0.000   0.014
  0.000  -0.000   0.068   0.000   0.000   0.000   0.000  -0.070  -0.000  -0.000   0.018  -0.004   0.000  -0.039  -0.000  -0.000
  0.096  -0.000  -0.000  -0.043   0.000  -0.109   0.000   0.000   0.053  -0.000  -0.000   0.000  -0.000  -0.000  -0.068   0.000


------------------------ aborting loop because EDIFF is reached ----------------------------------------


    CHARGE:  cpu time     28.0439: real time     28.1337
    FORLOC:  cpu time      0.0184: real time      0.0185
    FORNL :  cpu time      6.9843: real time      7.0144
    STRESS:  cpu time     21.3198: real time     21.3855
    FORCOR:  cpu time      0.2563: real time      0.2577
    FORHAR:  cpu time      0.0794: real time      0.0801
    MIXING:  cpu time      0.0103: real time      0.0104
    OFIELD:  cpu time      0.0001: real time      0.0001

 ---------------------------------------------------------------------------------------------

         DFTD3 V3.0 Rev 1        
 IVDW         = 11
 DF pbe       
 parameters
 VDW_S6       =    1.0000
 VDW_S8       =    0.7220
 VDW_SR       =    1.2170
 rs18     =    1.0000
 alpha6   =   14.0000
 alpha8   =   16.0000
 k1-k3    =   16.0000    1.3333   -4.0000
 VDW_RADIUS   =   50.2022 A
 VDW_CNRADIUS =   21.1671 A
 Edisp (eV)   -1.52345

 E6    (eV) :    -0.6739
 E8    (eV) :    -0.8495
 % E8        : 55.76
    FORVDW:  cpu time      0.0650: real time      0.0654

  FORCE on cell =-STRESS in cart. coord.  units (eV):
  Direction    XX          YY          ZZ          XY          YZ          ZX
  --------------------------------------------------------------------------------------
  Alpha Z   143.99320   143.99320   143.99320
  Ewald   -1172.42113 -1172.42112 -1685.32424     0.00001    -0.00001     0.00002
  Hartree   767.79471   767.79471   397.70432     0.00001    -0.00000     0.00001
  E(xc)    -289.38963  -289.38963  -289.56258     0.00000    -0.00000     0.00000
  Local    -664.89979  -664.89979   212.25860    -0.00002     0.00001    -0.00002
  n-local   333.72411   333.72411   330.94261     0.00000    -0.00000     0.00000
  augment   290.78178   290.78178   290.87934    -0.00000     0.00000     0.00000
  Kinetic   592.21831   592.21831   600.90700    -0.00000     0.00000    -0.00000
  Fock        0.00000     0.00000     0.00000     0.00000     0.00000     0.00000
  vdW        -1.80813    -1.80813    -1.77785     0.00000     0.00000     0.00000
  -------------------------------------------------------------------------------------
  Total      -0.00655    -0.00655     0.02041     0.00000    -0.00000    -0.00000
  in kB      -0.06521    -0.06521     0.20317     0.00000    -0.00000    -0.00000
  external pressure =        0.02 kB  Pullay stress =        0.00 kB


 VOLUME and BASIS-vectors are now :
 -----------------------------------------------------------------------------
  energy-cutoff  :      600.00
  volume of cell :      160.92
      direct lattice vectors                 reciprocal lattice vectors
     1.946732572  1.123946533 12.257705653     0.256840619  0.148287000  0.027193779
    -1.946732567  1.123946519 12.257705620    -0.256840621  0.148287000  0.027193779
     0.000000002 -2.247893213 12.257705630     0.000000001 -0.296574000  0.027193777

  length of vectors
    12.462117452 12.462117418 12.462117445     0.297818132  0.297818133  0.297818131


 FORCES acting on ions
    electron-ion (+dipol)            ewald-force                    non-local-force                 convergence-correction
 -----------------------------------------------------------------------------------------------
   0.350E-05 -.228E-05 0.102E+03   -.374E-05 0.229E-05 -.105E+03   0.913E-08 -.183E-06 0.254E+01   0.165E-06 0.159E-06 0.261E-03
   -.988E-06 0.105E-05 -.517E+02   0.944E-06 -.875E-06 0.490E+02   0.515E-07 0.729E-07 0.276E+01   0.653E-07 -.283E-06 0.661E-03
   -.286E-05 0.249E-06 -.624E+02   0.266E-05 -.252E-06 0.616E+02   0.170E-06 -.565E-07 0.825E+00   0.933E-07 0.458E-07 -.494E-03
   -.139E-05 -.265E-06 0.123E+03   0.258E-05 0.122E-05 -.127E+03   -.503E-06 -.610E-06 0.331E+01   -.407E-06 -.303E-06 0.501E-04
   0.302E-05 0.163E-05 -.115E+03   -.218E-05 -.161E-05 0.122E+03   -.622E-06 0.308E-07 -.672E+01   -.303E-06 -.336E-07 -.184E-04
   -.109E-05 0.262E-05 0.697E+02   0.204E-05 -.264E-05 -.718E+02   -.692E-06 0.888E-07 0.219E+01   -.319E-06 -.877E-08 -.196E-03
   0.123E-05 -.233E-05 -.735E+02   -.231E-05 0.186E-05 0.704E+02   0.687E-06 0.224E-06 0.303E+01   0.371E-06 0.183E-06 0.298E-03
 -----------------------------------------------------------------------------------------------
   0.141E-05 0.682E-06 -.795E+01   -.338E-14 -.364E-14 0.284E-13   -.900E-06 -.434E-06 0.795E+01   -.335E-06 -.241E-06 0.562E-03
 
 
 POSITION                                       TOTAL-FORCE (eV/Angst)
 -----------------------------------------------------------------------------------
     -0.00000      0.00000     14.40548        -0.000000     -0.000000      0.001093
      0.00000     -0.00000      5.94935         0.000000     -0.000000      0.002227
      0.00000     -0.00000     34.46118         0.000000     -0.000000      0.001968
     -0.00000      0.00000      1.61146         0.000000      0.000000      0.000443
      0.00000     -0.00000     11.01474        -0.000000      0.000000      0.002625
      0.00000     -0.00000     16.95299        -0.000000      0.000000     -0.002659
     -0.00000     -0.00000     32.00642        -0.000000     -0.000000     -0.005697
 -----------------------------------------------------------------------------------
    total drift:                                0.000000      0.000000      0.000042


--------------------------------------------------------------------------------------------------------



  FREE ENERGIE OF THE ION-ELECTRON SYSTEM (eV)
  ---------------------------------------------------
  free  energy   TOTEN  =       -28.19311915 eV

  energy  without entropy=      -28.19311894  energy(sigma->0) =      -28.19311905
 


--------------------------------------------------------------------------------------------------------


    POTLOK:  cpu time      0.7511: real time      0.7567


--------------------------------------------------------------------------------------------------------


     LOOP+:  cpu time   6382.0990: real time   6404.0068
    4ORBIT:  cpu time      0.0000: real time      0.0000

 total amount of memory used by VASP MPI-rank0   750219. kBytes
=======================================================================

   base      :      30000. kBytes
   nonl-proj :     446348. kBytes
   fftplans  :      72446. kBytes
   grid      :      30720. kBytes
   one-center:         15. kBytes
   wavefun   :     170690. kBytes
 
  
  
 General timing and accounting informations for this job:
 ========================================================
  
                  Total CPU time used (sec):     6433.713
                            User time (sec):     6183.922
                          System time (sec):      249.791
                         Elapsed time (sec):     6456.220
  
                   Maximum memory used (kb):     1141672.
                   Average memory used (kb):          N/A
  
                          Minor page faults:       472868
                          Major page faults:            0
                 Voluntary context switches:         1536
