/scratch/aleks/calculations/VASP/workfunction/Si_001/sp
Thu Oct 17 08:50:36 EEST 2024
 running on   36 total cores
 distrk:  each k-point on   36 cores,    1 groups
 distr:  one band on    9 cores,    4 groups
 vasp.6.3.2 27Jun22 (build Sep 20 2022 16:10:27) complex                        
  
 POSCAR found type information on POSCAR Si
 POSCAR found :  1 types and     234 ions
 Reading from existing POTCAR
 scaLAPACK will be used
 Reading from existing POTCAR
 LDA part: xc-table for Pade appr. of Perdew
 POSCAR, INCAR and KPOINTS ok, starting setup
 FFT: planning ... GRIDC
 FFT: planning ... GRID_SOFT
 FFT: planning ... GRID
 WAVECAR not read
 WARNING: chargedensity file is incomplete
 WARNING: random wavefunctions but no delay for mixing, default for NELMDL
 entering main loop
       N       E                     dE             d eps       ncg     rms          rms(c)
DAV:   1     0.327939038107E+04    0.32794E+04   -0.25300E+05  5888   0.840E+02
DAV:   2    -0.855105931667E+03   -0.41345E+04   -0.39658E+04  7112   0.184E+02
DAV:   3    -0.122662012015E+04   -0.37151E+03   -0.36252E+03  7392   0.516E+01
DAV:   4    -0.124654341701E+04   -0.19923E+02   -0.19785E+02  8672   0.123E+01
DAV:   5    -0.124712491884E+04   -0.58150E+00   -0.58023E+00  8144   0.220E+00    0.516E+01
DAV:   6    -0.122708000366E+04    0.20045E+02   -0.22435E+01  6952   0.468E+00    0.310E+01
DAV:   7    -0.122012679606E+04    0.69532E+01   -0.27342E+01  6712   0.511E+00    0.562E+00
DAV:   8    -0.122031147865E+04   -0.18468E+00   -0.37973E+00  7016   0.201E+00    0.276E+00
DAV:   9    -0.122025519765E+04    0.56281E-01   -0.45361E-01  7464   0.761E-01    0.182E+00
DAV:  10    -0.122026376503E+04   -0.85674E-02   -0.15858E-01  6808   0.410E-01    0.868E-01
DAV:  11    -0.122026971388E+04   -0.59489E-02   -0.53131E-02  6912   0.253E-01    0.349E-01
DAV:  12    -0.122027263088E+04   -0.29170E-02   -0.98198E-03  6704   0.131E-01    0.280E-01
DAV:  13    -0.122027902231E+04   -0.63914E-02   -0.17156E-02  6744   0.117E-01    0.100E-01
DAV:  14    -0.122028127339E+04   -0.22511E-02   -0.19142E-03  7176   0.493E-02    0.109E-01
DAV:  15    -0.122028441183E+04   -0.31384E-02   -0.64198E-04  6744   0.259E-02    0.516E-02
DAV:  16    -0.122028717573E+04   -0.27639E-02   -0.51653E-04  6512   0.194E-02    0.356E-02
DAV:  17    -0.122028821223E+04   -0.10365E-02   -0.72595E-05  6936   0.862E-03    0.272E-02
DAV:  18    -0.122028919132E+04   -0.97908E-03   -0.89842E-05  6424   0.900E-03    0.116E-02
DAV:  19    -0.122028982227E+04   -0.63095E-03   -0.54150E-05  6576   0.549E-03    0.128E-02
DAV:  20    -0.122029003305E+04   -0.21078E-03   -0.58942E-06  5456   0.316E-03    0.705E-03
DAV:  21    -0.122029047827E+04   -0.44522E-03   -0.30608E-05  5760   0.322E-03    0.563E-03
DAV:  22    -0.122029057975E+04   -0.10147E-03   -0.27038E-06  4712   0.133E-03    0.336E-03
DAV:  23    -0.122029083761E+04   -0.25787E-03   -0.12448E-05  4960   0.215E-03    0.256E-03
DAV:  24    -0.122029090822E+04   -0.70603E-04   -0.24036E-06  4600   0.105E-03    0.160E-03
DAV:  25    -0.122029093650E+04   -0.28281E-04   -0.77891E-07  4304   0.550E-04    0.119E-03
DAV:  26    -0.122029094733E+04   -0.10831E-04   -0.32529E-07  4296   0.397E-04    0.304E-04
DAV:  27    -0.122029095131E+04   -0.39785E-05   -0.17281E-07  3984   0.328E-04    0.592E-04
DAV:  28    -0.122029095259E+04   -0.12847E-05   -0.60158E-08  3464   0.248E-04    0.164E-04
DAV:  29    -0.122029095362E+04   -0.10281E-05   -0.75477E-08  3816   0.186E-04    0.245E-04
DAV:  30    -0.122029095364E+04   -0.21420E-07   -0.14973E-08  3360   0.120E-04
   1 F= -.12202909E+04 E0= -.12202924E+04  d E =0.456311E-02
 writing wavefunctions
Thu Oct 17 09:08:20 EEST 2024
