 vasp.6.3.2 27Jun22 (build Sep 20 2022 16:10:27) complex                        
  
 executed on             LinuxIFC date 2024.10.26  19:53:56
 running on   36 total cores
 distrk:  each k-point on   36 cores,    1 groups
 distr:  one band on NCORE=   9 cores,    4 groups


--------------------------------------------------------------------------------------------------------


 INCAR:
   SYSTEM = PDOS-Calculation-from-SCF
   ISTART = 0
   ICHARG = 11
   ENCUT = 360.0
   ISMEAR = -5
   SIGMA = 0.05
   LREAL = .FALSE.
   PREC = Accurate
   EDIFF = 1E-07
   NELM = 100
   ALGO = Normal
   SYMPREC = 1E-8
   NCORE = 9
   ISPIN = 1
   LORBIT = 11
   EMIN = -10
   EMAX = 10
   NEDOS = 5000
   LWAVE = .TRUE.
   LCHARG = .TRUE.
   LVTOT = .TRUE.
   ADDGRID = .TRUE.

 POTCAR:    PAW_PBE Zn 06Sep2000                  
 POTCAR:    PAW_PBE Al 04Jan2001                  
 POTCAR:    PAW_PBE S 06Sep2000                   
 WARNING: For LVTOT=.TRUE., VASP.5.x writes the TOTAL local potential to the
     file LOCPOT. If you want only the Hartree contributions, use LVHAR=.TRUE.
     instead. 

 POTCAR:    PAW_PBE Zn 06Sep2000                  
   SHA256 =  501fddbd8274dd8e9725d4f3de27861d7f1e553a7e18441bc79fed8f346e7f23 Zn/POTCAR             
   COPYR  = (c) Copyright 06Sep2000 Georg Kresse                                                    
   COPYR  = This file is part of the software VASP. Any use, copying, and all other rights are regul
   COPYR  = If you do not have a valid VASP license, you may not use, copy or distribute this file. 
   VRHFIN =Zn: d10 p2                                                                               
   LEXCH  = PE                                                                                      
   EATOM  =  1748.8345 eV,  128.5357 Ry                                                             
                                                                                                    
   TITEL  = PAW_PBE Zn 06Sep2000                                                                    
   LULTRA =        F    use ultrasoft PP ?                                                          
   IUNSCR =        1    unscreen: 0-lin 1-nonlin 2-no                                               
   RPACOR =    2.000    partial core radius                                                         
   POMASS =   65.390; ZVAL   =   12.000    mass and valenz                                          
   RCORE  =    2.300    outmost cutoff radius                                                       
   RWIGS  =    2.400; RWIGS  =    1.270    wigner-seitz radius (au A)                               
   ENMAX  =  276.723; ENMIN  =  207.542 eV                                                          
   RCLOC  =    1.828    cutoff for local pot                                                        
   LCOR   =        T    correct aug charges                                                         
   LPAW   =        T    paw PP                                                                      
   EAUG   =  575.892                                                                                
   DEXC   =    0.000                                                                                
   RMAX   =    2.347    core radius for proj-oper                                                   
   RAUG   =    1.300    factor for augmentation sphere                                              
   RDEP   =    2.324    radius for radial grids                                                     
   RDEPT  =    1.788    core radius for aug-charge                                                  
                                                                                                    
   Atomic configuration                                                                             
    9 entries                                                                                       
     n  l   j            E        occ.                                                              
     1  0  0.50     -9524.6913   2.0000                                                             
     2  0  0.50     -1158.1882   2.0000                                                             
     2  1  1.50     -1003.8506   6.0000                                                             
     3  0  0.50      -129.2194   2.0000                                                             
     3  1  1.50       -83.3890   6.0000                                                             
     3  2  2.50       -10.1410  10.0000                                                             
     4  0  0.50        -5.9785   2.0000                                                             
     4  1  0.50        -4.0817   0.0000                                                             
     4  3  2.50        -1.3606   0.0000                                                             
   Description                                                                                      
     l       E           TYP  RCUT    TYP  RCUT                                                     
     2    -10.1410010     23  2.300                                                                 
     2    -11.5015836     23  2.300                                                                 
     0     -5.9785163     23  2.300                                                                 
     0      1.1858015     23  2.300                                                                 
     1     -2.7211652     23  2.300                                                                 
     1     13.2444212     23  2.300                                                                 
  local pseudopotential read in
  partial core-charges read in
  partial kinetic energy density read in
  atomic valenz-charges read in
  non local Contribution for L=           2  read in
    real space projection operators read in
  non local Contribution for L=           2  read in
    real space projection operators read in
  non local Contribution for L=           0  read in
    real space projection operators read in
  non local Contribution for L=           0  read in
    real space projection operators read in
  non local Contribution for L=           1  read in
    real space projection operators read in
  non local Contribution for L=           1  read in
    real space projection operators read in
    PAW grid and wavefunctions read in
 
   number of l-projection  operators is LMAX  =           6
   number of lm-projection operators is LMMAX =          18
 
 POTCAR:    PAW_PBE Al 04Jan2001                  
   SHA256 =  17880443556af62b473fe41b62a467bd001ad55d2cabe504a3f22e34d4e9db96 Al/POTCAR             
   COPYR  = (c) Copyright 04Jan2001 Georg Kresse                                                    
   COPYR  = This file is part of the software VASP. Any use, copying, and all other rights are regul
   COPYR  = If you do not have a valid VASP license, you may not use, copy or distribute this file. 
   VRHFIN =Al: s2p1                                                                                 
   LEXCH  = PE                                                                                      
   EATOM  =    53.5387 eV,    3.9350 Ry                                                             
                                                                                                    
   TITEL  = PAW_PBE Al 04Jan2001                                                                    
   LULTRA =        F    use ultrasoft PP ?                                                          
   IUNSCR =        1    unscreen: 0-lin 1-nonlin 2-no                                               
   RPACOR =    1.500    partial core radius                                                         
   POMASS =   26.981; ZVAL   =    3.000    mass and valenz                                          
   RCORE  =    1.900    outmost cutoff radius                                                       
   RWIGS  =    2.650; RWIGS  =    1.402    wigner-seitz radius (au A)                               
   ENMAX  =  240.300; ENMIN  =  180.225 eV                                                          
   ICORE  =        2    local potential                                                             
   LCOR   =        T    correct aug charges                                                         
   LPAW   =        T    paw PP                                                                      
   EAUG   =  291.052                                                                                
   DEXC   =    0.000                                                                                
   RMAX   =    1.939    core radius for proj-oper                                                   
   RAUG   =    1.300    factor for augmentation sphere                                              
   RDEP   =    1.966    radius for radial grids                                                     
   RDEPT  =    1.856    core radius for aug-charge                                                  
                                                                                                    
   Atomic configuration                                                                             
    6 entries                                                                                       
     n  l   j            E        occ.                                                              
     1  0  0.50     -1511.1048   2.0000                                                             
     2  0  0.50      -108.1629   2.0000                                                             
     2  1  1.50       -69.6402   6.0000                                                             
     3  0  0.50        -7.7528   2.0000                                                             
     3  1  1.50        -2.7121   1.0000                                                             
     3  2  2.50        -2.7212   0.0000                                                             
   Description                                                                                      
     l       E           TYP  RCUT    TYP  RCUT                                                     
     0     -7.7528455     23  1.900                                                                 
     0     -3.3096929     23  1.900                                                                 
     1     -2.7120682     23  1.900                                                                 
     1     13.6058260     23  1.900                                                                 
     2     -2.7211652      7  1.900                                                                 
  local pseudopotential read in
  partial core-charges read in
  partial kinetic energy density read in
  atomic valenz-charges read in
  non local Contribution for L=           0  read in
    real space projection operators read in
  non local Contribution for L=           0  read in
    real space projection operators read in
  non local Contribution for L=           1  read in
    real space projection operators read in
  non local Contribution for L=           1  read in
    real space projection operators read in
    PAW grid and wavefunctions read in
 
   number of l-projection  operators is LMAX  =           4
   number of lm-projection operators is LMMAX =           8
 
 POTCAR:    PAW_PBE S 06Sep2000                   
   SHA256 =  0fc7481fb0695f01bdc6462160264c5c84044ae9ec85a907d398b887a2bc3132 S/POTCAR              
   COPYR  = (c) Copyright 06Sep2000 Georg Kresse                                                    
   COPYR  = This file is part of the software VASP. Any use, copying, and all other rights are regul
   COPYR  = If you do not have a valid VASP license, you may not use, copy or distribute this file. 
   VRHFIN =S : s2p4                                                                                 
   LEXCH  = PE                                                                                      
   EATOM  =   276.8230 eV,   20.3459 Ry                                                             
                                                                                                    
   TITEL  = PAW_PBE S 06Sep2000                                                                     
   LULTRA =        F    use ultrasoft PP ?                                                          
   IUNSCR =        1    unscreen: 0-lin 1-nonlin 2-no                                               
   RPACOR =    1.500    partial core radius                                                         
   POMASS =   32.066; ZVAL   =    6.000    mass and valenz                                          
   RCORE  =    1.900    outmost cutoff radius                                                       
   RWIGS  =    2.200; RWIGS  =    1.164    wigner-seitz radius (au A)                               
   ENMAX  =  258.689; ENMIN  =  194.016 eV                                                          
   ICORE  =        2    local potential                                                             
   LCOR   =        T    correct aug charges                                                         
   LPAW   =        T    paw PP                                                                      
   EAUG   =  335.092                                                                                
   DEXC   =    0.000                                                                                
   RMAX   =    1.942    core radius for proj-oper                                                   
   RAUG   =    1.300    factor for augmentation sphere                                              
   RDEP   =    1.954    radius for radial grids                                                     
   RDEPT  =    1.744    core radius for aug-charge                                                  
                                                                                                    
   Atomic configuration                                                                             
    6 entries                                                                                       
     n  l   j            E        occ.                                                              
     1  0  0.50     -2405.8406   2.0000                                                             
     2  0  0.50      -211.7007   2.0000                                                             
     2  1  1.50      -156.4958   6.0000                                                             
     3  0  0.50       -17.2562   2.0000                                                             
     3  1  0.50        -7.0085   4.0000                                                             
     3  2  1.50        -6.8029   0.0000                                                             
   Description                                                                                      
     l       E           TYP  RCUT    TYP  RCUT                                                     
     0    -17.2561641     23  1.900                                                                 
     0    -15.8743224     23  1.900                                                                 
     1     -7.0085400     23  1.900                                                                 
     1     -2.7779785     23  1.900                                                                 
     2     -6.8029130     23  1.900                                                                 
  local pseudopotential read in
  partial core-charges read in
  partial kinetic energy density read in
  atomic valenz-charges read in
  non local Contribution for L=           0  read in
    real space projection operators read in
  non local Contribution for L=           0  read in
    real space projection operators read in
  non local Contribution for L=           1  read in
    real space projection operators read in
  non local Contribution for L=           1  read in
    real space projection operators read in
    PAW grid and wavefunctions read in
 
   number of l-projection  operators is LMAX  =           4
   number of lm-projection operators is LMMAX =           8
 
 -----------------------------------------------------------------------------
|                                                                             |
|               ----> ADVICE to this user running VASP <----                  |
|                                                                             |
|     You have a (more or less) 'large supercell' and for larger cells it     |
|     might be more efficient to use real-space projection operators.         |
|     Therefore, try LREAL= Auto in the INCAR file.                           |
|     Mind: For very accurate calculation, you might also keep the            |
|     reciprocal projection scheme (i.e. LREAL=.FALSE.).                      |
|                                                                             |
 -----------------------------------------------------------------------------

  PAW_PBE Zn 06Sep2000                  :
 energy of atom  1       EATOM=-1748.8345
 kinetic energy error for atom=    0.0210 (will be added to EATOM!!)
  PAW_PBE Al 04Jan2001                  :
 energy of atom  2       EATOM=  -53.5387
 kinetic energy error for atom=    0.0006 (will be added to EATOM!!)
  PAW_PBE S 06Sep2000                   :
 energy of atom  3       EATOM= -276.8230
 kinetic energy error for atom=    0.0050 (will be added to EATOM!!)
 
 
 POSCAR: zinc dialuminium sulfide
  positions in direct lattice
  velocities in cartesian coordinates
 exchange correlation table for  LEXCH =        8
   RHO(1)=    0.500       N(1)  =     2000
   RHO(2)=  100.500       N(2)  =     4000
 


--------------------------------------------------------------------------------------------------------


 ion  position               nearest neighbor table
   1  0.125  0.125  0.125-  25 2.33  54 2.33  46 2.33  43 2.33
   2  0.875  0.875  0.875-  53 2.33  45 2.33  44 2.33  26 2.33
   3  0.625  0.125  0.625-  48 2.33  38 2.33  27 2.33  49 2.33
   4  0.375  0.875  0.375-  37 2.33  50 2.33  28 2.33  47 2.33
   5  0.125  0.625  0.625-  51 2.33  39 2.33  29 2.33  34 2.33
   6  0.875  0.375  0.375-  40 2.33  30 2.33  33 2.33  52 2.33
   7  0.625  0.625  0.125-  41 2.33  55 2.33  31 2.33  36 2.33
   8  0.375  0.375  0.875-  56 2.33  32 2.33  35 2.33  42 2.33
   9  0.500  0.500  0.500-  42 2.41  52 2.41  41 2.41  51 2.41  47 2.41  48 2.41
  10  0.250  0.750  1.000-  36 2.41  50 2.41  44 2.41  54 2.41  39 2.41  32 2.41
  11  0.750  0.250  1.000-  31 2.41  53 2.41  40 2.41  49 2.41  43 2.41  35 2.41
  12  0.750  1.000  0.250-  38 2.41  40 2.41  53 2.41  46 2.41  55 2.41  28 2.41
  13  0.250  1.000  0.750-  27 2.41  56 2.41  45 2.41  54 2.41  39 2.41  37 2.41
  14  1.000  0.250  0.750-  34 2.41  45 2.41  56 2.41  49 2.41  43 2.41  30 2.41
  15  1.000  0.750  0.250-  29 2.41  50 2.41  44 2.41  55 2.41  46 2.41  33 2.41
  16  0.500  1.000  1.000-  54 2.41  35 2.41  28 2.41  36 2.41  27 2.41  53 2.41
  17  0.250  0.250  0.500-  30 2.41  37 2.41  25 2.41  48 2.41  51 2.41  56 2.41
  18  0.750  0.750  0.500-  55 2.41  52 2.41  26 2.41  47 2.41  38 2.41  29 2.41
  19  0.750  0.500  0.750-  49 2.41  42 2.41  52 2.41  26 2.41  34 2.41  31 2.41
  20  0.250  0.500  0.250-  32 2.41  33 2.41  41 2.41  51 2.41  25 2.41  50 2.41
  21  1.000  0.500  1.000-  43 2.41  32 2.41  33 2.41  34 2.41  31 2.41  44 2.41
  22  0.500  0.250  0.250-  28 2.41  35 2.41  41 2.41  25 2.41  48 2.41  40 2.41
  23  0.500  0.750  0.750-  39 2.41  26 2.41  47 2.41  42 2.41  27 2.41  36 2.41
  24  1.000  1.000  0.500-  46 2.41  30 2.41  37 2.41  38 2.41  29 2.41  45 2.41
  25  0.259  0.259  0.259-   1 2.33  22 2.41  17 2.41  20 2.41
  26  0.741  0.741  0.741-   2 2.33  23 2.41  18 2.41  19 2.41
  27  0.491  0.991  0.759-   3 2.33  13 2.41  23 2.41  16 2.41
  28  0.509  0.009  0.241-   4 2.33  22 2.41  16 2.41  12 2.41
  29  0.991  0.759  0.491-   5 2.33  15 2.41  24 2.41  18 2.41
  30  0.009  0.241  0.509-   6 2.33  17 2.41  24 2.41  14 2.41
  31  0.759  0.491  0.991-   7 2.33  11 2.41  21 2.41  19 2.41
  32  0.241  0.509  0.009-   8 2.33  21 2.41  20 2.41  10 2.41
  33  0.009  0.509  0.241-   6 2.33  21 2.41  20 2.41  15 2.41
  34  0.991  0.491  0.759-   5 2.33  14 2.41  21 2.41  19 2.41
  35  0.509  0.241  0.009-   8 2.33  22 2.41  16 2.41  11 2.41
  36  0.491  0.759  0.991-   7 2.33  10 2.41  16 2.41  23 2.41
  37  0.241  0.009  0.509-   4 2.33  17 2.41  24 2.41  13 2.41
  38  0.759  0.991  0.491-   3 2.33  12 2.41  24 2.41  18 2.41
  39  0.259  0.759  0.759-   5 2.33  23 2.41  10 2.41  13 2.41
  40  0.741  0.241  0.241-   6 2.33  11 2.41  12 2.41  22 2.41
  41  0.491  0.491  0.259-   7 2.33  22 2.41  20 2.41   9 2.41
  42  0.509  0.509  0.741-   8 2.33   9 2.41  23 2.41  19 2.41
  43  0.991  0.259  0.991-   1 2.33  21 2.41  14 2.41  11 2.41
  44  0.009  0.741  0.009-   2 2.33  15 2.41  10 2.41  21 2.41
  45  0.009  0.009  0.741-   2 2.33  14 2.41  13 2.41  24 2.41
  46  0.991  0.991  0.259-   1 2.33  24 2.41  15 2.41  12 2.41
  47  0.509  0.741  0.509-   4 2.33  23 2.41   9 2.41  18 2.41
  48  0.491  0.259  0.491-   3 2.33  22 2.41  17 2.41   9 2.41
  49  0.759  0.259  0.759-   3 2.33  19 2.41  14 2.41  11 2.41
  50  0.241  0.741  0.241-   4 2.33  15 2.41  10 2.41  20 2.41
  51  0.259  0.491  0.491-   5 2.33  20 2.41   9 2.41  17 2.41
  52  0.741  0.509  0.509-   6 2.33   9 2.41  18 2.41  19 2.41
  53  0.741  0.009  0.009-   2 2.33  11 2.41  12 2.41  16 2.41
  54  0.259  0.991  0.991-   1 2.33  16 2.41  13 2.41  10 2.41
  55  0.759  0.759  0.259-   7 2.33  18 2.41  15 2.41  12 2.41
  56  0.241  0.241  0.741-   8 2.33  14 2.41  13 2.41  17 2.41
 
  LATTYP: Found a simple cubic cell.
 ALAT       =    10.0089998245
  
  Lattice vectors:
  
 A1 = (  10.0089998245,   0.0000000000,   0.0000000000)
 A2 = (   0.0000000000,  10.0089998245,   0.0000000000)
 A3 = (   0.0000000000,   0.0000000000,  10.0089998245)


Analysis of symmetry for initial positions (statically):
=====================================================================
 Subroutine PRICEL returns:
 Original cell was already a primitive cell.
 

 Routine SETGRP: Setting up the symmetry group for a 
 simple cubic supercell.


 Subroutine GETGRP returns: Found  6 space group operations
 (whereof  6 operations were pure point group operations)
 out of a pool of 48 trial point group operations.


The static configuration has the point symmetry C_3v.


Analysis of symmetry for dynamics (positions and initial velocities):
=====================================================================
 Subroutine PRICEL returns:
 Original cell was already a primitive cell.
 

 Routine SETGRP: Setting up the symmetry group for a 
 simple cubic supercell.


 Subroutine GETGRP returns: Found  6 space group operations
 (whereof  6 operations were pure point group operations)
 out of a pool of 48 trial point group operations.


The dynamic configuration has the point symmetry C_3v.


 Subroutine INISYM returns: Found  6 space group operations
 (whereof  6 operations are pure point group operations),
 and found     1 'primitive' translations


----------------------------------------------------------------------------------------

                                     Primitive cell                                     

  volume of cell :    1002.7024

  direct lattice vectors                    reciprocal lattice vectors
    10.008999825  0.000000000  0.000000000     0.099910083  0.000000000  0.000000000
     0.000000000 10.008999825  0.000000000     0.000000000  0.099910083  0.000000000
     0.000000000  0.000000000 10.008999825     0.000000000  0.000000000  0.099910083

  length of vectors
    10.008999825 10.008999825 10.008999825     0.099910083  0.099910083  0.099910083

  position of ions in fractional coordinates (direct lattice)
     0.125000006  0.125000006  0.125000006
     0.875000006  0.875000006  0.875000006
     0.624999994  0.125000006  0.624999994
     0.374999994  0.875000006  0.374999994
     0.125000006  0.624999994  0.624999994
     0.875000006  0.374999994  0.374999994
     0.624999994  0.624999994  0.125000006
     0.374999994  0.374999994  0.875000006
     0.500000002  0.500000002  0.500000002
     0.250000000  0.750000000  0.999999998
     0.750000000  0.250000000  0.999999998
     0.750000000  0.999999999  0.249999999
     0.250000000  0.999999999  0.750000000
     0.999999999  0.250000000  0.750000000
     0.999999999  0.750000000  0.250000000
     0.500000002  0.999999999  0.999999999
     0.249999999  0.250000000  0.500000002
     0.750000000  0.750000000  0.500000001
     0.750000000  0.500000001  0.750000000
     0.250000000  0.500000002  0.250000000
     0.999999999  0.500000001  0.999999998
     0.500000002  0.250000000  0.250000000
     0.500000001  0.750000000  0.750000000
     0.999999999  0.999999999  0.500000002
     0.259328818  0.259328816  0.259328817
     0.740671187  0.740671191  0.740671189
     0.490671179  0.990671189  0.759328808
     0.509328803  0.009328822  0.240671179
     0.990671193  0.759328807  0.490671176
     0.009328820  0.240671179  0.509328806
     0.759328808  0.490671178  0.990671194
     0.240671178  0.509328803  0.009328819
     0.009328819  0.509328806  0.240671179
     0.990671193  0.490671177  0.759328809
     0.509328805  0.240671179  0.009328821
     0.490671179  0.759328809  0.990671190
     0.240671180  0.009328819  0.509328804
     0.759328807  0.990671192  0.490671178
     0.259328825  0.759328806  0.759328807
     0.740671195  0.240671181  0.240671180
     0.490671185  0.490671184  0.259328816
     0.509328812  0.509328814  0.740671186
     0.990671191  0.259328826  0.990671189
     0.009328817  0.740671195  0.009328820
     0.009328817  0.009328820  0.740671197
     0.990671192  0.990671190  0.259328826
     0.509328812  0.740671189  0.509328815
     0.490671185  0.259328815  0.490671184
     0.759328810  0.259328822  0.759328808
     0.240671177  0.740671197  0.240671181
     0.259328816  0.490671186  0.490671185
     0.740671187  0.509328812  0.509328812
     0.740671196  0.009328818  0.009328816
     0.259328826  0.990671192  0.990671192
     0.759328809  0.759328805  0.259328822
     0.240671179  0.240671181  0.740671196

  ion indices of the primitive-cell ions
   primitive index   ion index
                 1           1
                 2           2
                 3           3
                 4           4
                 5           5
                 6           6
                 7           7
                 8           8
                 9           9
                10          10
                11          11
                12          12
                13          13
                14          14
                15          15
                16          16
                17          17
                18          18
                19          19
                20          20
                21          21
                22          22
                23          23
                24          24
                25          25
                26          26
                27          27
                28          28
                29          29
                30          30
                31          31
                32          32
                33          33
                34          34
                35          35
                36          36
                37          37
                38          38
                39          39
                40          40
                41          41
                42          42
                43          43
                44          44
                45          45
                46          46
                47          47
                48          48
                49          49
                50          50
                51          51
                52          52
                53          53
                54          54
                55          55
                56          56

----------------------------------------------------------------------------------------

 
 
 KPOINTS: K-Spacing Value                         

Automatic generation of k-mesh.
 Grid dimensions read from file:
 generate k-points for:   15   15   15

 Generating k-lattice:

  Cartesian coordinates                     Fractional coordinates (reciprocal lattice)
     0.006660672  0.000000000  0.000000000     0.066666667  0.000000000  0.000000000
     0.000000000  0.006660672  0.000000000     0.000000000  0.066666667  0.000000000
     0.000000000  0.000000000  0.006660672     0.000000000  0.000000000  0.066666667

  Length of vectors
     0.006660672  0.006660672  0.006660672

  Shift w.r.t. Gamma in fractional coordinates (k-lattice)
     0.000000000  0.000000000  0.000000000

 TETIRR: Found   5029 inequivalent tetrahedra from    20250
 
 Subroutine IBZKPT returns following result:
 ===========================================
 
 Found    344 irreducible k-points:
 
 Following reciprocal coordinates:
            Coordinates               Weight
  0.000000  0.000000  0.000000      1.000000
  0.066667  0.000000  0.000000      6.000000
  0.133333  0.000000  0.000000      6.000000
  0.200000  0.000000  0.000000      6.000000
  0.266667  0.000000  0.000000      6.000000
  0.333333  0.000000  0.000000      6.000000
  0.400000  0.000000  0.000000      6.000000
  0.466667  0.000000  0.000000      6.000000
  0.066667  0.066667  0.000000      6.000000
 -0.066667  0.066667  0.000000      6.000000
  0.133333  0.066667  0.000000     12.000000
 -0.066667  0.133333  0.000000     12.000000
  0.200000  0.066667  0.000000     12.000000
 -0.066667  0.200000  0.000000     12.000000
  0.266667  0.066667  0.000000     12.000000
 -0.066667  0.266667  0.000000     12.000000
  0.333333  0.066667  0.000000     12.000000
 -0.066667  0.333333  0.000000     12.000000
  0.400000  0.066667  0.000000     12.000000
 -0.066667  0.400000  0.000000     12.000000
  0.466667  0.066667  0.000000     12.000000
 -0.066667  0.466667  0.000000     12.000000
  0.133333  0.133333  0.000000      6.000000
 -0.133333  0.133333  0.000000      6.000000
  0.200000  0.133333  0.000000     12.000000
 -0.133333  0.200000  0.000000     12.000000
  0.266667  0.133333  0.000000     12.000000
 -0.133333  0.266667  0.000000     12.000000
  0.333333  0.133333  0.000000     12.000000
 -0.133333  0.333333  0.000000     12.000000
  0.400000  0.133333  0.000000     12.000000
 -0.133333  0.400000  0.000000     12.000000
  0.466667  0.133333  0.000000     12.000000
 -0.133333  0.466667  0.000000     12.000000
  0.200000  0.200000  0.000000      6.000000
 -0.200000  0.200000  0.000000      6.000000
  0.266667  0.200000  0.000000     12.000000
 -0.200000  0.266667  0.000000     12.000000
  0.333333  0.200000  0.000000     12.000000
 -0.200000  0.333333  0.000000     12.000000
  0.400000  0.200000  0.000000     12.000000
 -0.200000  0.400000  0.000000     12.000000
  0.466667  0.200000  0.000000     12.000000
 -0.200000  0.466667  0.000000     12.000000
  0.266667  0.266667  0.000000      6.000000
 -0.266667  0.266667  0.000000      6.000000
  0.333333  0.266667  0.000000     12.000000
 -0.266667  0.333333  0.000000     12.000000
  0.400000  0.266667  0.000000     12.000000
 -0.266667  0.400000  0.000000     12.000000
  0.466667  0.266667  0.000000     12.000000
 -0.266667  0.466667  0.000000     12.000000
  0.333333  0.333333  0.000000      6.000000
 -0.333333  0.333333  0.000000      6.000000
  0.400000  0.333333  0.000000     12.000000
 -0.333333  0.400000  0.000000     12.000000
  0.466667  0.333333  0.000000     12.000000
 -0.333333  0.466667  0.000000     12.000000
  0.400000  0.400000  0.000000      6.000000
 -0.400000  0.400000  0.000000      6.000000
  0.466667  0.400000  0.000000     12.000000
 -0.400000  0.466667  0.000000     12.000000
  0.466667  0.466667  0.000000      6.000000
 -0.466667  0.466667  0.000000      6.000000
  0.066667  0.066667  0.066667      2.000000
 -0.066667  0.066667  0.066667      6.000000
  0.133333  0.066667  0.066667      6.000000
 -0.066667  0.133333  0.066667     12.000000
 -0.133333  0.066667  0.066667      6.000000
  0.200000  0.066667  0.066667      6.000000
 -0.066667  0.200000  0.066667     12.000000
 -0.200000  0.066667  0.066667      6.000000
  0.266667  0.066667  0.066667      6.000000
 -0.066667  0.266667  0.066667     12.000000
 -0.266667  0.066667  0.066667      6.000000
  0.333333  0.066667  0.066667      6.000000
 -0.066667  0.333333  0.066667     12.000000
 -0.333333  0.066667  0.066667      6.000000
  0.400000  0.066667  0.066667      6.000000
 -0.066667  0.400000  0.066667     12.000000
 -0.400000  0.066667  0.066667      6.000000
  0.466667  0.066667  0.066667      6.000000
 -0.066667  0.466667  0.066667     12.000000
 -0.466667  0.066667  0.066667      6.000000
  0.133333  0.133333  0.066667      6.000000
 -0.133333  0.133333  0.066667     12.000000
 -0.066667  0.133333  0.133333      6.000000
  0.200000  0.133333  0.066667     12.000000
 -0.133333  0.200000  0.066667     12.000000
 -0.200000  0.066667  0.133333     12.000000
 -0.066667  0.133333  0.200000     12.000000
  0.266667  0.133333  0.066667     12.000000
 -0.133333  0.266667  0.066667     12.000000
 -0.266667  0.066667  0.133333     12.000000
 -0.066667  0.133333  0.266667     12.000000
  0.333333  0.133333  0.066667     12.000000
 -0.133333  0.333333  0.066667     12.000000
 -0.333333  0.066667  0.133333     12.000000
 -0.066667  0.133333  0.333333     12.000000
  0.400000  0.133333  0.066667     12.000000
 -0.133333  0.400000  0.066667     12.000000
 -0.400000  0.066667  0.133333     12.000000
 -0.066667  0.133333  0.400000     12.000000
  0.466667  0.133333  0.066667     12.000000
 -0.133333  0.466667  0.066667     12.000000
 -0.466667  0.066667  0.133333     12.000000
 -0.066667  0.133333  0.466667     12.000000
  0.200000  0.200000  0.066667      6.000000
 -0.200000  0.200000  0.066667     12.000000
 -0.066667  0.200000  0.200000      6.000000
  0.266667  0.200000  0.066667     12.000000
 -0.200000  0.266667  0.066667     12.000000
 -0.266667  0.066667  0.200000     12.000000
 -0.066667  0.200000  0.266667     12.000000
  0.333333  0.200000  0.066667     12.000000
 -0.200000  0.333333  0.066667     12.000000
 -0.333333  0.066667  0.200000     12.000000
 -0.066667  0.200000  0.333333     12.000000
  0.400000  0.200000  0.066667     12.000000
 -0.200000  0.400000  0.066667     12.000000
 -0.400000  0.066667  0.200000     12.000000
 -0.066667  0.200000  0.400000     12.000000
  0.466667  0.200000  0.066667     12.000000
 -0.200000  0.466667  0.066667     12.000000
 -0.466667  0.066667  0.200000     12.000000
 -0.066667  0.200000  0.466667     12.000000
  0.266667  0.266667  0.066667      6.000000
 -0.266667  0.266667  0.066667     12.000000
 -0.066667  0.266667  0.266667      6.000000
  0.333333  0.266667  0.066667     12.000000
 -0.266667  0.333333  0.066667     12.000000
 -0.333333  0.066667  0.266667     12.000000
 -0.066667  0.266667  0.333333     12.000000
  0.400000  0.266667  0.066667     12.000000
 -0.266667  0.400000  0.066667     12.000000
 -0.400000  0.066667  0.266667     12.000000
 -0.066667  0.266667  0.400000     12.000000
  0.466667  0.266667  0.066667     12.000000
 -0.266667  0.466667  0.066667     12.000000
 -0.466667  0.066667  0.266667     12.000000
 -0.066667  0.266667  0.466667     12.000000
  0.333333  0.333333  0.066667      6.000000
 -0.333333  0.333333  0.066667     12.000000
 -0.066667  0.333333  0.333333      6.000000
  0.400000  0.333333  0.066667     12.000000
 -0.333333  0.400000  0.066667     12.000000
 -0.400000  0.066667  0.333333     12.000000
 -0.066667  0.333333  0.400000     12.000000
  0.466667  0.333333  0.066667     12.000000
 -0.333333  0.466667  0.066667     12.000000
 -0.466667  0.066667  0.333333     12.000000
 -0.066667  0.333333  0.466667     12.000000
  0.400000  0.400000  0.066667      6.000000
 -0.400000  0.400000  0.066667     12.000000
 -0.066667  0.400000  0.400000      6.000000
  0.466667  0.400000  0.066667     12.000000
 -0.400000  0.466667  0.066667     12.000000
 -0.466667  0.066667  0.400000     12.000000
 -0.066667  0.400000  0.466667     12.000000
  0.466667  0.466667  0.066667      6.000000
 -0.466667  0.466667  0.066667     12.000000
 -0.066667  0.466667  0.466667      6.000000
  0.133333  0.133333  0.133333      2.000000
 -0.133333  0.133333  0.133333      6.000000
  0.200000  0.133333  0.133333      6.000000
 -0.133333  0.200000  0.133333     12.000000
 -0.200000  0.133333  0.133333      6.000000
  0.266667  0.133333  0.133333      6.000000
 -0.133333  0.266667  0.133333     12.000000
 -0.266667  0.133333  0.133333      6.000000
  0.333333  0.133333  0.133333      6.000000
 -0.133333  0.333333  0.133333     12.000000
 -0.333333  0.133333  0.133333      6.000000
  0.400000  0.133333  0.133333      6.000000
 -0.133333  0.400000  0.133333     12.000000
 -0.400000  0.133333  0.133333      6.000000
  0.466667  0.133333  0.133333      6.000000
 -0.133333  0.466667  0.133333     12.000000
 -0.466667  0.133333  0.133333      6.000000
  0.200000  0.200000  0.133333      6.000000
 -0.200000  0.200000  0.133333     12.000000
 -0.133333  0.200000  0.200000      6.000000
  0.266667  0.200000  0.133333     12.000000
 -0.200000  0.266667  0.133333     12.000000
 -0.266667  0.133333  0.200000     12.000000
 -0.133333  0.200000  0.266667     12.000000
  0.333333  0.200000  0.133333     12.000000
 -0.200000  0.333333  0.133333     12.000000
 -0.333333  0.133333  0.200000     12.000000
 -0.133333  0.200000  0.333333     12.000000
  0.400000  0.200000  0.133333     12.000000
 -0.200000  0.400000  0.133333     12.000000
 -0.400000  0.133333  0.200000     12.000000
 -0.133333  0.200000  0.400000     12.000000
  0.466667  0.200000  0.133333     12.000000
 -0.200000  0.466667  0.133333     12.000000
 -0.466667  0.133333  0.200000     12.000000
 -0.133333  0.200000  0.466667     12.000000
  0.266667  0.266667  0.133333      6.000000
 -0.266667  0.266667  0.133333     12.000000
 -0.133333  0.266667  0.266667      6.000000
  0.333333  0.266667  0.133333     12.000000
 -0.266667  0.333333  0.133333     12.000000
 -0.333333  0.133333  0.266667     12.000000
 -0.133333  0.266667  0.333333     12.000000
  0.400000  0.266667  0.133333     12.000000
 -0.266667  0.400000  0.133333     12.000000
 -0.400000  0.133333  0.266667     12.000000
 -0.133333  0.266667  0.400000     12.000000
  0.466667  0.266667  0.133333     12.000000
 -0.266667  0.466667  0.133333     12.000000
 -0.466667  0.133333  0.266667     12.000000
 -0.133333  0.266667  0.466667     12.000000
  0.333333  0.333333  0.133333      6.000000
 -0.333333  0.333333  0.133333     12.000000
 -0.133333  0.333333  0.333333      6.000000
  0.400000  0.333333  0.133333     12.000000
 -0.333333  0.400000  0.133333     12.000000
 -0.400000  0.133333  0.333333     12.000000
 -0.133333  0.333333  0.400000     12.000000
  0.466667  0.333333  0.133333     12.000000
 -0.333333  0.466667  0.133333     12.000000
 -0.466667  0.133333  0.333333     12.000000
 -0.133333  0.333333  0.466667     12.000000
  0.400000  0.400000  0.133333      6.000000
 -0.400000  0.400000  0.133333     12.000000
 -0.133333  0.400000  0.400000      6.000000
  0.466667  0.400000  0.133333     12.000000
 -0.400000  0.466667  0.133333     12.000000
 -0.466667  0.133333  0.400000     12.000000
 -0.133333  0.400000  0.466667     12.000000
  0.466667  0.466667  0.133333      6.000000
 -0.466667  0.466667  0.133333     12.000000
 -0.133333  0.466667  0.466667      6.000000
  0.200000  0.200000  0.200000      2.000000
 -0.200000  0.200000  0.200000      6.000000
  0.266667  0.200000  0.200000      6.000000
 -0.200000  0.266667  0.200000     12.000000
 -0.266667  0.200000  0.200000      6.000000
  0.333333  0.200000  0.200000      6.000000
 -0.200000  0.333333  0.200000     12.000000
 -0.333333  0.200000  0.200000      6.000000
  0.400000  0.200000  0.200000      6.000000
 -0.200000  0.400000  0.200000     12.000000
 -0.400000  0.200000  0.200000      6.000000
  0.466667  0.200000  0.200000      6.000000
 -0.200000  0.466667  0.200000     12.000000
 -0.466667  0.200000  0.200000      6.000000
  0.266667  0.266667  0.200000      6.000000
 -0.266667  0.266667  0.200000     12.000000
 -0.200000  0.266667  0.266667      6.000000
  0.333333  0.266667  0.200000     12.000000
 -0.266667  0.333333  0.200000     12.000000
 -0.333333  0.200000  0.266667     12.000000
 -0.200000  0.266667  0.333333     12.000000
  0.400000  0.266667  0.200000     12.000000
 -0.266667  0.400000  0.200000     12.000000
 -0.400000  0.200000  0.266667     12.000000
 -0.200000  0.266667  0.400000     12.000000
  0.466667  0.266667  0.200000     12.000000
 -0.266667  0.466667  0.200000     12.000000
 -0.466667  0.200000  0.266667     12.000000
 -0.200000  0.266667  0.466667     12.000000
  0.333333  0.333333  0.200000      6.000000
 -0.333333  0.333333  0.200000     12.000000
 -0.200000  0.333333  0.333333      6.000000
  0.400000  0.333333  0.200000     12.000000
 -0.333333  0.400000  0.200000     12.000000
 -0.400000  0.200000  0.333333     12.000000
 -0.200000  0.333333  0.400000     12.000000
  0.466667  0.333333  0.200000     12.000000
 -0.333333  0.466667  0.200000     12.000000
 -0.466667  0.200000  0.333333     12.000000
 -0.200000  0.333333  0.466667     12.000000
  0.400000  0.400000  0.200000      6.000000
 -0.400000  0.400000  0.200000     12.000000
 -0.200000  0.400000  0.400000      6.000000
  0.466667  0.400000  0.200000     12.000000
 -0.400000  0.466667  0.200000     12.000000
 -0.466667  0.200000  0.400000     12.000000
 -0.200000  0.400000  0.466667     12.000000
  0.466667  0.466667  0.200000      6.000000
 -0.466667  0.466667  0.200000     12.000000
 -0.200000  0.466667  0.466667      6.000000
  0.266667  0.266667  0.266667      2.000000
 -0.266667  0.266667  0.266667      6.000000
  0.333333  0.266667  0.266667      6.000000
 -0.266667  0.333333  0.266667     12.000000
 -0.333333  0.266667  0.266667      6.000000
  0.400000  0.266667  0.266667      6.000000
 -0.266667  0.400000  0.266667     12.000000
 -0.400000  0.266667  0.266667      6.000000
  0.466667  0.266667  0.266667      6.000000
 -0.266667  0.466667  0.266667     12.000000
 -0.466667  0.266667  0.266667      6.000000
  0.333333  0.333333  0.266667      6.000000
 -0.333333  0.333333  0.266667     12.000000
 -0.266667  0.333333  0.333333      6.000000
  0.400000  0.333333  0.266667     12.000000
 -0.333333  0.400000  0.266667     12.000000
 -0.400000  0.266667  0.333333     12.000000
 -0.266667  0.333333  0.400000     12.000000
  0.466667  0.333333  0.266667     12.000000
 -0.333333  0.466667  0.266667     12.000000
 -0.466667  0.266667  0.333333     12.000000
 -0.266667  0.333333  0.466667     12.000000
  0.400000  0.400000  0.266667      6.000000
 -0.400000  0.400000  0.266667     12.000000
 -0.266667  0.400000  0.400000      6.000000
  0.466667  0.400000  0.266667     12.000000
 -0.400000  0.466667  0.266667     12.000000
 -0.466667  0.266667  0.400000     12.000000
 -0.266667  0.400000  0.466667     12.000000
  0.466667  0.466667  0.266667      6.000000
 -0.466667  0.466667  0.266667     12.000000
 -0.266667  0.466667  0.466667      6.000000
  0.333333  0.333333  0.333333      2.000000
 -0.333333  0.333333  0.333333      6.000000
  0.400000  0.333333  0.333333      6.000000
 -0.333333  0.400000  0.333333     12.000000
 -0.400000  0.333333  0.333333      6.000000
  0.466667  0.333333  0.333333      6.000000
 -0.333333  0.466667  0.333333     12.000000
 -0.466667  0.333333  0.333333      6.000000
  0.400000  0.400000  0.333333      6.000000
 -0.400000  0.400000  0.333333     12.000000
 -0.333333  0.400000  0.400000      6.000000
  0.466667  0.400000  0.333333     12.000000
 -0.400000  0.466667  0.333333     12.000000
 -0.466667  0.333333  0.400000     12.000000
 -0.333333  0.400000  0.466667     12.000000
  0.466667  0.466667  0.333333      6.000000
 -0.466667  0.466667  0.333333     12.000000
 -0.333333  0.466667  0.466667      6.000000
  0.400000  0.400000  0.400000      2.000000
 -0.400000  0.400000  0.400000      6.000000
  0.466667  0.400000  0.400000      6.000000
 -0.400000  0.466667  0.400000     12.000000
 -0.466667  0.400000  0.400000      6.000000
  0.466667  0.466667  0.400000      6.000000
 -0.466667  0.466667  0.400000     12.000000
 -0.400000  0.466667  0.466667      6.000000
  0.466667  0.466667  0.466667      2.000000
 -0.466667  0.466667  0.466667      6.000000
 
 Following cartesian coordinates:
            Coordinates               Weight
  0.000000  0.000000  0.000000      1.000000
  0.006661  0.000000  0.000000      6.000000
  0.013321  0.000000  0.000000      6.000000
  0.019982  0.000000  0.000000      6.000000
  0.026643  0.000000  0.000000      6.000000
  0.033303  0.000000  0.000000      6.000000
  0.039964  0.000000  0.000000      6.000000
  0.046625  0.000000  0.000000      6.000000
  0.006661  0.006661  0.000000      6.000000
 -0.006661  0.006661  0.000000      6.000000
  0.013321  0.006661  0.000000     12.000000
 -0.006661  0.013321  0.000000     12.000000
  0.019982  0.006661  0.000000     12.000000
 -0.006661  0.019982  0.000000     12.000000
  0.026643  0.006661  0.000000     12.000000
 -0.006661  0.026643  0.000000     12.000000
  0.033303  0.006661  0.000000     12.000000
 -0.006661  0.033303  0.000000     12.000000
  0.039964  0.006661  0.000000     12.000000
 -0.006661  0.039964  0.000000     12.000000
  0.046625  0.006661  0.000000     12.000000
 -0.006661  0.046625  0.000000     12.000000
  0.013321  0.013321  0.000000      6.000000
 -0.013321  0.013321  0.000000      6.000000
  0.019982  0.013321  0.000000     12.000000
 -0.013321  0.019982  0.000000     12.000000
  0.026643  0.013321  0.000000     12.000000
 -0.013321  0.026643  0.000000     12.000000
  0.033303  0.013321  0.000000     12.000000
 -0.013321  0.033303  0.000000     12.000000
  0.039964  0.013321  0.000000     12.000000
 -0.013321  0.039964  0.000000     12.000000
  0.046625  0.013321  0.000000     12.000000
 -0.013321  0.046625  0.000000     12.000000
  0.019982  0.019982  0.000000      6.000000
 -0.019982  0.019982  0.000000      6.000000
  0.026643  0.019982  0.000000     12.000000
 -0.019982  0.026643  0.000000     12.000000
  0.033303  0.019982  0.000000     12.000000
 -0.019982  0.033303  0.000000     12.000000
  0.039964  0.019982  0.000000     12.000000
 -0.019982  0.039964  0.000000     12.000000
  0.046625  0.019982  0.000000     12.000000
 -0.019982  0.046625  0.000000     12.000000
  0.026643  0.026643  0.000000      6.000000
 -0.026643  0.026643  0.000000      6.000000
  0.033303  0.026643  0.000000     12.000000
 -0.026643  0.033303  0.000000     12.000000
  0.039964  0.026643  0.000000     12.000000
 -0.026643  0.039964  0.000000     12.000000
  0.046625  0.026643  0.000000     12.000000
 -0.026643  0.046625  0.000000     12.000000
  0.033303  0.033303  0.000000      6.000000
 -0.033303  0.033303  0.000000      6.000000
  0.039964  0.033303  0.000000     12.000000
 -0.033303  0.039964  0.000000     12.000000
  0.046625  0.033303  0.000000     12.000000
 -0.033303  0.046625  0.000000     12.000000
  0.039964  0.039964  0.000000      6.000000
 -0.039964  0.039964  0.000000      6.000000
  0.046625  0.039964  0.000000     12.000000
 -0.039964  0.046625  0.000000     12.000000
  0.046625  0.046625  0.000000      6.000000
 -0.046625  0.046625  0.000000      6.000000
  0.006661  0.006661  0.006661      2.000000
 -0.006661  0.006661  0.006661      6.000000
  0.013321  0.006661  0.006661      6.000000
 -0.006661  0.013321  0.006661     12.000000
 -0.013321  0.006661  0.006661      6.000000
  0.019982  0.006661  0.006661      6.000000
 -0.006661  0.019982  0.006661     12.000000
 -0.019982  0.006661  0.006661      6.000000
  0.026643  0.006661  0.006661      6.000000
 -0.006661  0.026643  0.006661     12.000000
 -0.026643  0.006661  0.006661      6.000000
  0.033303  0.006661  0.006661      6.000000
 -0.006661  0.033303  0.006661     12.000000
 -0.033303  0.006661  0.006661      6.000000
  0.039964  0.006661  0.006661      6.000000
 -0.006661  0.039964  0.006661     12.000000
 -0.039964  0.006661  0.006661      6.000000
  0.046625  0.006661  0.006661      6.000000
 -0.006661  0.046625  0.006661     12.000000
 -0.046625  0.006661  0.006661      6.000000
  0.013321  0.013321  0.006661      6.000000
 -0.013321  0.013321  0.006661     12.000000
 -0.006661  0.013321  0.013321      6.000000
  0.019982  0.013321  0.006661     12.000000
 -0.013321  0.019982  0.006661     12.000000
 -0.019982  0.006661  0.013321     12.000000
 -0.006661  0.013321  0.019982     12.000000
  0.026643  0.013321  0.006661     12.000000
 -0.013321  0.026643  0.006661     12.000000
 -0.026643  0.006661  0.013321     12.000000
 -0.006661  0.013321  0.026643     12.000000
  0.033303  0.013321  0.006661     12.000000
 -0.013321  0.033303  0.006661     12.000000
 -0.033303  0.006661  0.013321     12.000000
 -0.006661  0.013321  0.033303     12.000000
  0.039964  0.013321  0.006661     12.000000
 -0.013321  0.039964  0.006661     12.000000
 -0.039964  0.006661  0.013321     12.000000
 -0.006661  0.013321  0.039964     12.000000
  0.046625  0.013321  0.006661     12.000000
 -0.013321  0.046625  0.006661     12.000000
 -0.046625  0.006661  0.013321     12.000000
 -0.006661  0.013321  0.046625     12.000000
  0.019982  0.019982  0.006661      6.000000
 -0.019982  0.019982  0.006661     12.000000
 -0.006661  0.019982  0.019982      6.000000
  0.026643  0.019982  0.006661     12.000000
 -0.019982  0.026643  0.006661     12.000000
 -0.026643  0.006661  0.019982     12.000000
 -0.006661  0.019982  0.026643     12.000000
  0.033303  0.019982  0.006661     12.000000
 -0.019982  0.033303  0.006661     12.000000
 -0.033303  0.006661  0.019982     12.000000
 -0.006661  0.019982  0.033303     12.000000
  0.039964  0.019982  0.006661     12.000000
 -0.019982  0.039964  0.006661     12.000000
 -0.039964  0.006661  0.019982     12.000000
 -0.006661  0.019982  0.039964     12.000000
  0.046625  0.019982  0.006661     12.000000
 -0.019982  0.046625  0.006661     12.000000
 -0.046625  0.006661  0.019982     12.000000
 -0.006661  0.019982  0.046625     12.000000
  0.026643  0.026643  0.006661      6.000000
 -0.026643  0.026643  0.006661     12.000000
 -0.006661  0.026643  0.026643      6.000000
  0.033303  0.026643  0.006661     12.000000
 -0.026643  0.033303  0.006661     12.000000
 -0.033303  0.006661  0.026643     12.000000
 -0.006661  0.026643  0.033303     12.000000
  0.039964  0.026643  0.006661     12.000000
 -0.026643  0.039964  0.006661     12.000000
 -0.039964  0.006661  0.026643     12.000000
 -0.006661  0.026643  0.039964     12.000000
  0.046625  0.026643  0.006661     12.000000
 -0.026643  0.046625  0.006661     12.000000
 -0.046625  0.006661  0.026643     12.000000
 -0.006661  0.026643  0.046625     12.000000
  0.033303  0.033303  0.006661      6.000000
 -0.033303  0.033303  0.006661     12.000000
 -0.006661  0.033303  0.033303      6.000000
  0.039964  0.033303  0.006661     12.000000
 -0.033303  0.039964  0.006661     12.000000
 -0.039964  0.006661  0.033303     12.000000
 -0.006661  0.033303  0.039964     12.000000
  0.046625  0.033303  0.006661     12.000000
 -0.033303  0.046625  0.006661     12.000000
 -0.046625  0.006661  0.033303     12.000000
 -0.006661  0.033303  0.046625     12.000000
  0.039964  0.039964  0.006661      6.000000
 -0.039964  0.039964  0.006661     12.000000
 -0.006661  0.039964  0.039964      6.000000
  0.046625  0.039964  0.006661     12.000000
 -0.039964  0.046625  0.006661     12.000000
 -0.046625  0.006661  0.039964     12.000000
 -0.006661  0.039964  0.046625     12.000000
  0.046625  0.046625  0.006661      6.000000
 -0.046625  0.046625  0.006661     12.000000
 -0.006661  0.046625  0.046625      6.000000
  0.013321  0.013321  0.013321      2.000000
 -0.013321  0.013321  0.013321      6.000000
  0.019982  0.013321  0.013321      6.000000
 -0.013321  0.019982  0.013321     12.000000
 -0.019982  0.013321  0.013321      6.000000
  0.026643  0.013321  0.013321      6.000000
 -0.013321  0.026643  0.013321     12.000000
 -0.026643  0.013321  0.013321      6.000000
  0.033303  0.013321  0.013321      6.000000
 -0.013321  0.033303  0.013321     12.000000
 -0.033303  0.013321  0.013321      6.000000
  0.039964  0.013321  0.013321      6.000000
 -0.013321  0.039964  0.013321     12.000000
 -0.039964  0.013321  0.013321      6.000000
  0.046625  0.013321  0.013321      6.000000
 -0.013321  0.046625  0.013321     12.000000
 -0.046625  0.013321  0.013321      6.000000
  0.019982  0.019982  0.013321      6.000000
 -0.019982  0.019982  0.013321     12.000000
 -0.013321  0.019982  0.019982      6.000000
  0.026643  0.019982  0.013321     12.000000
 -0.019982  0.026643  0.013321     12.000000
 -0.026643  0.013321  0.019982     12.000000
 -0.013321  0.019982  0.026643     12.000000
  0.033303  0.019982  0.013321     12.000000
 -0.019982  0.033303  0.013321     12.000000
 -0.033303  0.013321  0.019982     12.000000
 -0.013321  0.019982  0.033303     12.000000
  0.039964  0.019982  0.013321     12.000000
 -0.019982  0.039964  0.013321     12.000000
 -0.039964  0.013321  0.019982     12.000000
 -0.013321  0.019982  0.039964     12.000000
  0.046625  0.019982  0.013321     12.000000
 -0.019982  0.046625  0.013321     12.000000
 -0.046625  0.013321  0.019982     12.000000
 -0.013321  0.019982  0.046625     12.000000
  0.026643  0.026643  0.013321      6.000000
 -0.026643  0.026643  0.013321     12.000000
 -0.013321  0.026643  0.026643      6.000000
  0.033303  0.026643  0.013321     12.000000
 -0.026643  0.033303  0.013321     12.000000
 -0.033303  0.013321  0.026643     12.000000
 -0.013321  0.026643  0.033303     12.000000
  0.039964  0.026643  0.013321     12.000000
 -0.026643  0.039964  0.013321     12.000000
 -0.039964  0.013321  0.026643     12.000000
 -0.013321  0.026643  0.039964     12.000000
  0.046625  0.026643  0.013321     12.000000
 -0.026643  0.046625  0.013321     12.000000
 -0.046625  0.013321  0.026643     12.000000
 -0.013321  0.026643  0.046625     12.000000
  0.033303  0.033303  0.013321      6.000000
 -0.033303  0.033303  0.013321     12.000000
 -0.013321  0.033303  0.033303      6.000000
  0.039964  0.033303  0.013321     12.000000
 -0.033303  0.039964  0.013321     12.000000
 -0.039964  0.013321  0.033303     12.000000
 -0.013321  0.033303  0.039964     12.000000
  0.046625  0.033303  0.013321     12.000000
 -0.033303  0.046625  0.013321     12.000000
 -0.046625  0.013321  0.033303     12.000000
 -0.013321  0.033303  0.046625     12.000000
  0.039964  0.039964  0.013321      6.000000
 -0.039964  0.039964  0.013321     12.000000
 -0.013321  0.039964  0.039964      6.000000
  0.046625  0.039964  0.013321     12.000000
 -0.039964  0.046625  0.013321     12.000000
 -0.046625  0.013321  0.039964     12.000000
 -0.013321  0.039964  0.046625     12.000000
  0.046625  0.046625  0.013321      6.000000
 -0.046625  0.046625  0.013321     12.000000
 -0.013321  0.046625  0.046625      6.000000
  0.019982  0.019982  0.019982      2.000000
 -0.019982  0.019982  0.019982      6.000000
  0.026643  0.019982  0.019982      6.000000
 -0.019982  0.026643  0.019982     12.000000
 -0.026643  0.019982  0.019982      6.000000
  0.033303  0.019982  0.019982      6.000000
 -0.019982  0.033303  0.019982     12.000000
 -0.033303  0.019982  0.019982      6.000000
  0.039964  0.019982  0.019982      6.000000
 -0.019982  0.039964  0.019982     12.000000
 -0.039964  0.019982  0.019982      6.000000
  0.046625  0.019982  0.019982      6.000000
 -0.019982  0.046625  0.019982     12.000000
 -0.046625  0.019982  0.019982      6.000000
  0.026643  0.026643  0.019982      6.000000
 -0.026643  0.026643  0.019982     12.000000
 -0.019982  0.026643  0.026643      6.000000
  0.033303  0.026643  0.019982     12.000000
 -0.026643  0.033303  0.019982     12.000000
 -0.033303  0.019982  0.026643     12.000000
 -0.019982  0.026643  0.033303     12.000000
  0.039964  0.026643  0.019982     12.000000
 -0.026643  0.039964  0.019982     12.000000
 -0.039964  0.019982  0.026643     12.000000
 -0.019982  0.026643  0.039964     12.000000
  0.046625  0.026643  0.019982     12.000000
 -0.026643  0.046625  0.019982     12.000000
 -0.046625  0.019982  0.026643     12.000000
 -0.019982  0.026643  0.046625     12.000000
  0.033303  0.033303  0.019982      6.000000
 -0.033303  0.033303  0.019982     12.000000
 -0.019982  0.033303  0.033303      6.000000
  0.039964  0.033303  0.019982     12.000000
 -0.033303  0.039964  0.019982     12.000000
 -0.039964  0.019982  0.033303     12.000000
 -0.019982  0.033303  0.039964     12.000000
  0.046625  0.033303  0.019982     12.000000
 -0.033303  0.046625  0.019982     12.000000
 -0.046625  0.019982  0.033303     12.000000
 -0.019982  0.033303  0.046625     12.000000
  0.039964  0.039964  0.019982      6.000000
 -0.039964  0.039964  0.019982     12.000000
 -0.019982  0.039964  0.039964      6.000000
  0.046625  0.039964  0.019982     12.000000
 -0.039964  0.046625  0.019982     12.000000
 -0.046625  0.019982  0.039964     12.000000
 -0.019982  0.039964  0.046625     12.000000
  0.046625  0.046625  0.019982      6.000000
 -0.046625  0.046625  0.019982     12.000000
 -0.019982  0.046625  0.046625      6.000000
  0.026643  0.026643  0.026643      2.000000
 -0.026643  0.026643  0.026643      6.000000
  0.033303  0.026643  0.026643      6.000000
 -0.026643  0.033303  0.026643     12.000000
 -0.033303  0.026643  0.026643      6.000000
  0.039964  0.026643  0.026643      6.000000
 -0.026643  0.039964  0.026643     12.000000
 -0.039964  0.026643  0.026643      6.000000
  0.046625  0.026643  0.026643      6.000000
 -0.026643  0.046625  0.026643     12.000000
 -0.046625  0.026643  0.026643      6.000000
  0.033303  0.033303  0.026643      6.000000
 -0.033303  0.033303  0.026643     12.000000
 -0.026643  0.033303  0.033303      6.000000
  0.039964  0.033303  0.026643     12.000000
 -0.033303  0.039964  0.026643     12.000000
 -0.039964  0.026643  0.033303     12.000000
 -0.026643  0.033303  0.039964     12.000000
  0.046625  0.033303  0.026643     12.000000
 -0.033303  0.046625  0.026643     12.000000
 -0.046625  0.026643  0.033303     12.000000
 -0.026643  0.033303  0.046625     12.000000
  0.039964  0.039964  0.026643      6.000000
 -0.039964  0.039964  0.026643     12.000000
 -0.026643  0.039964  0.039964      6.000000
  0.046625  0.039964  0.026643     12.000000
 -0.039964  0.046625  0.026643     12.000000
 -0.046625  0.026643  0.039964     12.000000
 -0.026643  0.039964  0.046625     12.000000
  0.046625  0.046625  0.026643      6.000000
 -0.046625  0.046625  0.026643     12.000000
 -0.026643  0.046625  0.046625      6.000000
  0.033303  0.033303  0.033303      2.000000
 -0.033303  0.033303  0.033303      6.000000
  0.039964  0.033303  0.033303      6.000000
 -0.033303  0.039964  0.033303     12.000000
 -0.039964  0.033303  0.033303      6.000000
  0.046625  0.033303  0.033303      6.000000
 -0.033303  0.046625  0.033303     12.000000
 -0.046625  0.033303  0.033303      6.000000
  0.039964  0.039964  0.033303      6.000000
 -0.039964  0.039964  0.033303     12.000000
 -0.033303  0.039964  0.039964      6.000000
  0.046625  0.039964  0.033303     12.000000
 -0.039964  0.046625  0.033303     12.000000
 -0.046625  0.033303  0.039964     12.000000
 -0.033303  0.039964  0.046625     12.000000
  0.046625  0.046625  0.033303      6.000000
 -0.046625  0.046625  0.033303     12.000000
 -0.033303  0.046625  0.046625      6.000000
  0.039964  0.039964  0.039964      2.000000
 -0.039964  0.039964  0.039964      6.000000
  0.046625  0.039964  0.039964      6.000000
 -0.039964  0.046625  0.039964     12.000000
 -0.046625  0.039964  0.039964      6.000000
  0.046625  0.046625  0.039964      6.000000
 -0.046625  0.046625  0.039964     12.000000
 -0.039964  0.046625  0.046625      6.000000
  0.046625  0.046625  0.046625      2.000000
 -0.046625  0.046625  0.046625      6.000000
 


--------------------------------------------------------------------------------------------------------




 Dimension of arrays:
   k-points           NKPTS =    344   k-points in BZ     NKDIM =    344   number of bands    NBANDS=    204
   number of dos      NEDOS =   5000   number of ions     NIONS =     56
   non local maximal  LDIM  =      6   non local SUM 2l+1 LMDIM =     18
   total plane-waves  NPLWV = 262144
   max r-space proj   IRMAX =      1   max aug-charges    IRDMAX=  81590
   dimension x,y,z NGX =    64 NGY =   64 NGZ =   64
   dimension x,y,z NGXF=   128 NGYF=  128 NGZF=  128
   support grid    NGXF=   256 NGYF=  256 NGZF=  256
   ions per type =               8  16  32
   NGX,Y,Z   is equivalent  to a cutoff of  10.63, 10.63, 10.63 a.u.
   NGXF,Y,Z  is equivalent  to a cutoff of  21.26, 21.26, 21.26 a.u.

 SYSTEM =  PDOS-Calculation-from-SCF               
 POSCAR =  zinc dialuminium sulfide                

 Startparameter for this run:
   NWRITE =      2    write-flag & timer
   PREC   = accura    normal or accurate (medium, high low for compatibility)
   ISTART =      0    job   : 0-new  1-cont  2-samecut
   ICHARG =     11    charge: 1-file 2-atom 10-const
   ISPIN  =      1    spin polarized calculation?
   LNONCOLLINEAR =      F non collinear calculations
   LSORBIT =      F    spin-orbit coupling
   INIWAV =      1    electr: 0-lowe 1-rand  2-diag
   LASPH  =      F    aspherical Exc in radial PAW
 Electronic Relaxation 1
   ENCUT  =  360.0 eV  26.46 Ry    5.14 a.u.  15.48 15.48 15.48*2*pi/ulx,y,z
   ENINI  =  360.0     initial cutoff
   ENAUG  =  575.9 eV  augmentation charge cutoff
   NELM   =    100;   NELMIN=  2; NELMDL= -5     # of ELM steps 
   EDIFF  = 0.1E-06   stopping-criterion for ELM
   LREAL  =      F    real-space projection
   NLSPLINE    = F    spline interpolate recip. space projectors
   LCOMPAT=      F    compatible to vasp.4.4
   GGA_COMPAT  = T    GGA compatible to vasp.4.4-vasp.4.6
   LMAXPAW     = -100 max onsite density
   LMAXMIX     =    2 max onsite mixed and CHGCAR
   VOSKOWN=      0    Vosko Wilk Nusair interpolation
   ROPT   =    0.00000   0.00000   0.00000
 Ionic relaxation
   EDIFFG = 0.1E-05   stopping-criterion for IOM
   NSW    =      0    number of steps for IOM
   NBLOCK =      1;   KBLOCK =      1    inner block; outer block 
   IBRION =     -1    ionic relax: 0-MD 1-quasi-New 2-CG
   NFREE  =      0    steps in history (QN), initial steepest desc. (CG)
   ISIF   =      2    stress and relaxation
   IWAVPR =     10    prediction:  0-non 1-charg 2-wave 3-comb
   ISYM   =      2    0-nonsym 1-usesym 2-fastsym
   LCORR  =      T    Harris-Foulkes like correction to forces

   POTIM  = 0.5000    time-step for ionic-motion
   TEIN   =    0.0    initial temperature
   TEBEG  =    0.0;   TEEND  =   0.0 temperature during run
   SMASS  =  -3.00    Nose mass-parameter (am)
   estimated Nose-frequenzy (Omega)   =  0.10E-29 period in steps = 0.13E+47 mass=  -0.229E-26a.u.
   SCALEE = 1.0000    scale energy and forces
   NPACO  =    256;   APACO  = 10.0  distance and # of slots for P.C.
   PSTRESS=    0.0 pullay stress

  Mass of Ions in am
   POMASS =  65.39 26.98 32.07
  Ionic Valenz
   ZVAL   =  12.00  3.00  6.00
  Atomic Wigner-Seitz radii
   RWIGS  =  -1.00 -1.00 -1.00
  virtual crystal weights 
   VCA    =   1.00  1.00  1.00
   NELECT =     336.0000    total number of electrons
   NUPDOWN=      -1.0000    fix difference up-down

 DOS related values:
   EMIN   = -10.00;   EMAX   = 10.00  energy-range for DOS
   EFERMI =   0.00
   ISMEAR =    -5;   SIGMA  =   0.05  broadening in eV -4-tet -1-fermi 0-gaus

 Electronic relaxation 2 (details)
   IALGO  =     38    algorithm
   LDIAG  =      T    sub-space diagonalisation (order eigenvalues)
   LSUBROT=      F    optimize rotation matrix (better conditioning)
   TURBO    =      0    0=normal 1=particle mesh
   IRESTART =      0    0=no restart 2=restart with 2 vectors
   NREBOOT  =      0    no. of reboots
   NMIN     =      0    reboot dimension
   EREF     =   0.00    reference energy to select bands
   IMIX   =      4    mixing-type and parameters
     AMIX     =   0.40;   BMIX     =  1.00
     AMIX_MAG =   1.60;   BMIX_MAG =  1.00
     AMIN     =   0.10
     WC   =   100.;   INIMIX=   1;  MIXPRE=   1;  MAXMIX= -45

 Intra band minimization:
   WEIMIN = 0.0000     energy-eigenvalue tresh-hold
   EBREAK =  0.12E-09  absolut break condition
   DEPER  =   0.30     relativ break condition  

   TIME   =   0.40     timestep for ELM

  volume/ion in A,a.u.               =      17.91       120.83
  Fermi-wavevector in a.u.,A,eV,Ry     =   1.137096  2.148800 17.592169  1.292988
  Thomas-Fermi vector in A             =   2.273801
 
 Write flags
   LWAVE        =      T    write WAVECAR
   LDOWNSAMPLE  =      F    k-point downsampling of WAVECAR
   LCHARG       =      T    write CHGCAR
   LVTOT        =      T    write LOCPOT, total local potential
   LVHAR        =      F    write LOCPOT, Hartree potential only
   LELF         =      F    write electronic localiz. function (ELF)
   LORBIT       =     11    0 simple, 1 ext, 2 COOP (PROOUT), +10 PAW based schemes


 Dipole corrections
   LMONO  =      F    monopole corrections only (constant potential shift)
   LDIPOL =      F    correct potential (dipole corrections)
   IDIPOL =      0    1-x, 2-y, 3-z, 4-all directions 
   EPSILON=  1.0000000 bulk dielectric constant

 Exchange correlation treatment:
   GGA     =    --    GGA type
   LEXCH   =     8    internal setting for exchange type
   LIBXC   =     F    Libxc                    
   VOSKOWN =     0    Vosko Wilk Nusair interpolation
   LHFCALC =     F    Hartree Fock is set to
   LHFONE  =     F    Hartree Fock one center treatment
   AEXX    =    0.0000 exact exchange contribution

 Linear response parameters
   LEPSILON=     F    determine dielectric tensor
   LRPA    =     F    only Hartree local field effects (RPA)
   LNABLA  =     F    use nabla operator in PAW spheres
   LVEL    =     F    velocity operator in full k-point grid
   CSHIFT  =0.1000    complex shift for real part using Kramers Kronig
   OMEGAMAX=  -1.0    maximum frequency
   DEG_THRESHOLD= 0.2000000E-02 threshold for treating states as degnerate
   RTIME   =   -0.100 relaxation time in fs
  (WPLASMAI=    0.000 imaginary part of plasma frequency in eV, 0.658/RTIME)
   DFIELD  = 0.0000000 0.0000000 0.0000000 field for delta impulse in time
 
  Optional k-point grid parameters
   LKPOINTS_OPT  =     F    use optional k-point grid
   KPOINTS_OPT_MODE=     1    mode for optional k-point grid
 
 Orbital magnetization related:
   ORBITALMAG=     F  switch on orbital magnetization
   LCHIMAG   =     F  perturbation theory with respect to B field
   DQ        =  0.001000  dq finite difference perturbation B field
   LLRAUG    =     F  two centre corrections for induced B field



--------------------------------------------------------------------------------------------------------


 Static calculation
 charge density and potential remain constant during run
 non-spin polarized calculation
 Variant of blocked Davidson
 Davidson routine will perform the subspace rotation
 perform sub-space diagonalisation
    after iterative eigenvector-optimisation
 no mixing
 using additional bands           36
 reciprocal scheme for non local part
 use partial core corrections
 calculate Harris-corrections to forces 
   (improved forces if not selfconsistent)
 use gradient corrections 
 WARNING: stress and forces are not correct
  (second derivative of E(xc) not defined)
 use of overlap-Matrix (Vanderbilt PP)
 Fermi weights with tetrahedron method with Bloechl corrections


--------------------------------------------------------------------------------------------------------


  energy-cutoff  :      360.00
  volume of cell :     1002.70
      direct lattice vectors                 reciprocal lattice vectors
    10.008999825  0.000000000  0.000000000     0.099910083  0.000000000  0.000000000
     0.000000000 10.008999825  0.000000000     0.000000000  0.099910083  0.000000000
     0.000000000  0.000000000 10.008999825     0.000000000  0.000000000  0.099910083

  length of vectors
    10.008999825 10.008999825 10.008999825     0.099910083  0.099910083  0.099910083


 
 k-points in units of 2pi/SCALE and weight: K-Spacing Value                         
   0.00000000  0.00000000  0.00000000       0.000
   0.00666067  0.00000000  0.00000000       0.002
   0.01332134  0.00000000  0.00000000       0.002
   0.01998202  0.00000000  0.00000000       0.002
   0.02664269  0.00000000  0.00000000       0.002
   0.03330336  0.00000000  0.00000000       0.002
   0.03996403  0.00000000  0.00000000       0.002
   0.04662471  0.00000000  0.00000000       0.002
   0.00666067  0.00666067  0.00000000       0.002
  -0.00666067  0.00666067  0.00000000       0.002
   0.01332134  0.00666067  0.00000000       0.004
  -0.00666067  0.01332134  0.00000000       0.004
   0.01998202  0.00666067  0.00000000       0.004
  -0.00666067  0.01998202  0.00000000       0.004
   0.02664269  0.00666067  0.00000000       0.004
  -0.00666067  0.02664269  0.00000000       0.004
   0.03330336  0.00666067  0.00000000       0.004
  -0.00666067  0.03330336  0.00000000       0.004
   0.03996403  0.00666067  0.00000000       0.004
  -0.00666067  0.03996403  0.00000000       0.004
   0.04662471  0.00666067  0.00000000       0.004
  -0.00666067  0.04662471  0.00000000       0.004
   0.01332134  0.01332134  0.00000000       0.002
  -0.01332134  0.01332134  0.00000000       0.002
   0.01998202  0.01332134  0.00000000       0.004
  -0.01332134  0.01998202  0.00000000       0.004
   0.02664269  0.01332134  0.00000000       0.004
  -0.01332134  0.02664269  0.00000000       0.004
   0.03330336  0.01332134  0.00000000       0.004
  -0.01332134  0.03330336  0.00000000       0.004
   0.03996403  0.01332134  0.00000000       0.004
  -0.01332134  0.03996403  0.00000000       0.004
   0.04662471  0.01332134  0.00000000       0.004
  -0.01332134  0.04662471  0.00000000       0.004
   0.01998202  0.01998202  0.00000000       0.002
  -0.01998202  0.01998202  0.00000000       0.002
   0.02664269  0.01998202  0.00000000       0.004
  -0.01998202  0.02664269  0.00000000       0.004
   0.03330336  0.01998202  0.00000000       0.004
  -0.01998202  0.03330336  0.00000000       0.004
   0.03996403  0.01998202  0.00000000       0.004
  -0.01998202  0.03996403  0.00000000       0.004
   0.04662471  0.01998202  0.00000000       0.004
  -0.01998202  0.04662471  0.00000000       0.004
   0.02664269  0.02664269  0.00000000       0.002
  -0.02664269  0.02664269  0.00000000       0.002
   0.03330336  0.02664269  0.00000000       0.004
  -0.02664269  0.03330336  0.00000000       0.004
   0.03996403  0.02664269  0.00000000       0.004
  -0.02664269  0.03996403  0.00000000       0.004
   0.04662471  0.02664269  0.00000000       0.004
  -0.02664269  0.04662471  0.00000000       0.004
   0.03330336  0.03330336  0.00000000       0.002
  -0.03330336  0.03330336  0.00000000       0.002
   0.03996403  0.03330336  0.00000000       0.004
  -0.03330336  0.03996403  0.00000000       0.004
   0.04662471  0.03330336  0.00000000       0.004
  -0.03330336  0.04662471  0.00000000       0.004
   0.03996403  0.03996403  0.00000000       0.002
  -0.03996403  0.03996403  0.00000000       0.002
   0.04662471  0.03996403  0.00000000       0.004
  -0.03996403  0.04662471  0.00000000       0.004
   0.04662471  0.04662471  0.00000000       0.002
  -0.04662471  0.04662471  0.00000000       0.002
   0.00666067  0.00666067  0.00666067       0.001
  -0.00666067  0.00666067  0.00666067       0.002
   0.01332134  0.00666067  0.00666067       0.002
  -0.00666067  0.01332134  0.00666067       0.004
  -0.01332134  0.00666067  0.00666067       0.002
   0.01998202  0.00666067  0.00666067       0.002
  -0.00666067  0.01998202  0.00666067       0.004
  -0.01998202  0.00666067  0.00666067       0.002
   0.02664269  0.00666067  0.00666067       0.002
  -0.00666067  0.02664269  0.00666067       0.004
  -0.02664269  0.00666067  0.00666067       0.002
   0.03330336  0.00666067  0.00666067       0.002
  -0.00666067  0.03330336  0.00666067       0.004
  -0.03330336  0.00666067  0.00666067       0.002
   0.03996403  0.00666067  0.00666067       0.002
  -0.00666067  0.03996403  0.00666067       0.004
  -0.03996403  0.00666067  0.00666067       0.002
   0.04662471  0.00666067  0.00666067       0.002
  -0.00666067  0.04662471  0.00666067       0.004
  -0.04662471  0.00666067  0.00666067       0.002
   0.01332134  0.01332134  0.00666067       0.002
  -0.01332134  0.01332134  0.00666067       0.004
  -0.00666067  0.01332134  0.01332134       0.002
   0.01998202  0.01332134  0.00666067       0.004
  -0.01332134  0.01998202  0.00666067       0.004
  -0.01998202  0.00666067  0.01332134       0.004
  -0.00666067  0.01332134  0.01998202       0.004
   0.02664269  0.01332134  0.00666067       0.004
  -0.01332134  0.02664269  0.00666067       0.004
  -0.02664269  0.00666067  0.01332134       0.004
  -0.00666067  0.01332134  0.02664269       0.004
   0.03330336  0.01332134  0.00666067       0.004
  -0.01332134  0.03330336  0.00666067       0.004
  -0.03330336  0.00666067  0.01332134       0.004
  -0.00666067  0.01332134  0.03330336       0.004
   0.03996403  0.01332134  0.00666067       0.004
  -0.01332134  0.03996403  0.00666067       0.004
  -0.03996403  0.00666067  0.01332134       0.004
  -0.00666067  0.01332134  0.03996403       0.004
   0.04662471  0.01332134  0.00666067       0.004
  -0.01332134  0.04662471  0.00666067       0.004
  -0.04662471  0.00666067  0.01332134       0.004
  -0.00666067  0.01332134  0.04662471       0.004
   0.01998202  0.01998202  0.00666067       0.002
  -0.01998202  0.01998202  0.00666067       0.004
  -0.00666067  0.01998202  0.01998202       0.002
   0.02664269  0.01998202  0.00666067       0.004
  -0.01998202  0.02664269  0.00666067       0.004
  -0.02664269  0.00666067  0.01998202       0.004
  -0.00666067  0.01998202  0.02664269       0.004
   0.03330336  0.01998202  0.00666067       0.004
  -0.01998202  0.03330336  0.00666067       0.004
  -0.03330336  0.00666067  0.01998202       0.004
  -0.00666067  0.01998202  0.03330336       0.004
   0.03996403  0.01998202  0.00666067       0.004
  -0.01998202  0.03996403  0.00666067       0.004
  -0.03996403  0.00666067  0.01998202       0.004
  -0.00666067  0.01998202  0.03996403       0.004
   0.04662471  0.01998202  0.00666067       0.004
  -0.01998202  0.04662471  0.00666067       0.004
  -0.04662471  0.00666067  0.01998202       0.004
  -0.00666067  0.01998202  0.04662471       0.004
   0.02664269  0.02664269  0.00666067       0.002
  -0.02664269  0.02664269  0.00666067       0.004
  -0.00666067  0.02664269  0.02664269       0.002
   0.03330336  0.02664269  0.00666067       0.004
  -0.02664269  0.03330336  0.00666067       0.004
  -0.03330336  0.00666067  0.02664269       0.004
  -0.00666067  0.02664269  0.03330336       0.004
   0.03996403  0.02664269  0.00666067       0.004
  -0.02664269  0.03996403  0.00666067       0.004
  -0.03996403  0.00666067  0.02664269       0.004
  -0.00666067  0.02664269  0.03996403       0.004
   0.04662471  0.02664269  0.00666067       0.004
  -0.02664269  0.04662471  0.00666067       0.004
  -0.04662471  0.00666067  0.02664269       0.004
  -0.00666067  0.02664269  0.04662471       0.004
   0.03330336  0.03330336  0.00666067       0.002
  -0.03330336  0.03330336  0.00666067       0.004
  -0.00666067  0.03330336  0.03330336       0.002
   0.03996403  0.03330336  0.00666067       0.004
  -0.03330336  0.03996403  0.00666067       0.004
  -0.03996403  0.00666067  0.03330336       0.004
  -0.00666067  0.03330336  0.03996403       0.004
   0.04662471  0.03330336  0.00666067       0.004
  -0.03330336  0.04662471  0.00666067       0.004
  -0.04662471  0.00666067  0.03330336       0.004
  -0.00666067  0.03330336  0.04662471       0.004
   0.03996403  0.03996403  0.00666067       0.002
  -0.03996403  0.03996403  0.00666067       0.004
  -0.00666067  0.03996403  0.03996403       0.002
   0.04662471  0.03996403  0.00666067       0.004
  -0.03996403  0.04662471  0.00666067       0.004
  -0.04662471  0.00666067  0.03996403       0.004
  -0.00666067  0.03996403  0.04662471       0.004
   0.04662471  0.04662471  0.00666067       0.002
  -0.04662471  0.04662471  0.00666067       0.004
  -0.00666067  0.04662471  0.04662471       0.002
   0.01332134  0.01332134  0.01332134       0.001
  -0.01332134  0.01332134  0.01332134       0.002
   0.01998202  0.01332134  0.01332134       0.002
  -0.01332134  0.01998202  0.01332134       0.004
  -0.01998202  0.01332134  0.01332134       0.002
   0.02664269  0.01332134  0.01332134       0.002
  -0.01332134  0.02664269  0.01332134       0.004
  -0.02664269  0.01332134  0.01332134       0.002
   0.03330336  0.01332134  0.01332134       0.002
  -0.01332134  0.03330336  0.01332134       0.004
  -0.03330336  0.01332134  0.01332134       0.002
   0.03996403  0.01332134  0.01332134       0.002
  -0.01332134  0.03996403  0.01332134       0.004
  -0.03996403  0.01332134  0.01332134       0.002
   0.04662471  0.01332134  0.01332134       0.002
  -0.01332134  0.04662471  0.01332134       0.004
  -0.04662471  0.01332134  0.01332134       0.002
   0.01998202  0.01998202  0.01332134       0.002
  -0.01998202  0.01998202  0.01332134       0.004
  -0.01332134  0.01998202  0.01998202       0.002
   0.02664269  0.01998202  0.01332134       0.004
  -0.01998202  0.02664269  0.01332134       0.004
  -0.02664269  0.01332134  0.01998202       0.004
  -0.01332134  0.01998202  0.02664269       0.004
   0.03330336  0.01998202  0.01332134       0.004
  -0.01998202  0.03330336  0.01332134       0.004
  -0.03330336  0.01332134  0.01998202       0.004
  -0.01332134  0.01998202  0.03330336       0.004
   0.03996403  0.01998202  0.01332134       0.004
  -0.01998202  0.03996403  0.01332134       0.004
  -0.03996403  0.01332134  0.01998202       0.004
  -0.01332134  0.01998202  0.03996403       0.004
   0.04662471  0.01998202  0.01332134       0.004
  -0.01998202  0.04662471  0.01332134       0.004
  -0.04662471  0.01332134  0.01998202       0.004
  -0.01332134  0.01998202  0.04662471       0.004
   0.02664269  0.02664269  0.01332134       0.002
  -0.02664269  0.02664269  0.01332134       0.004
  -0.01332134  0.02664269  0.02664269       0.002
   0.03330336  0.02664269  0.01332134       0.004
  -0.02664269  0.03330336  0.01332134       0.004
  -0.03330336  0.01332134  0.02664269       0.004
  -0.01332134  0.02664269  0.03330336       0.004
   0.03996403  0.02664269  0.01332134       0.004
  -0.02664269  0.03996403  0.01332134       0.004
  -0.03996403  0.01332134  0.02664269       0.004
  -0.01332134  0.02664269  0.03996403       0.004
   0.04662471  0.02664269  0.01332134       0.004
  -0.02664269  0.04662471  0.01332134       0.004
  -0.04662471  0.01332134  0.02664269       0.004
  -0.01332134  0.02664269  0.04662471       0.004
   0.03330336  0.03330336  0.01332134       0.002
  -0.03330336  0.03330336  0.01332134       0.004
  -0.01332134  0.03330336  0.03330336       0.002
   0.03996403  0.03330336  0.01332134       0.004
  -0.03330336  0.03996403  0.01332134       0.004
  -0.03996403  0.01332134  0.03330336       0.004
[...]
   49        1.322   2.472   0.000   3.794
   50        1.322   2.472   0.000   3.794
   51        1.322   2.472   0.000   3.794
   52        1.322   2.472   0.000   3.794
   53        1.322   2.472   0.000   3.794
   54        1.322   2.472   0.000   3.794
   55        1.322   2.472   0.000   3.794
   56        1.322   2.472   0.000   3.794
--------------------------------------------------
tot         51.785  88.366  78.349 218.500
 
    CHARGE:  cpu time      4.9329: real time      4.9487
    FORLOC:  cpu time      0.0244: real time      0.0245
    FORNL :  cpu time     66.5213: real time     66.7366
    STRESS:  cpu time     94.2202: real time     94.5317
    FORCOR:  cpu time      0.0749: real time      0.0751
    FORHAR:  cpu time      0.0356: real time      0.0357
    OFIELD:  cpu time      0.0004: real time      0.0004

  FORCE on cell =-STRESS in cart. coord.  units (eV):
  Direction    XX          YY          ZZ          XY          YZ          ZX
  --------------------------------------------------------------------------------------
  Alpha Z   617.34891   617.34891   617.34891
  Ewald   -5630.27484 -5630.27485 -5630.27484    -0.00000    -0.00002     0.00001
  Hartree  2348.80536  2348.80536  2348.80536    -0.00001    -0.00001    -0.00001
  E(xc)   -1403.54985 -1403.54985 -1403.54985    -0.00000    -0.00000    -0.00000
  Local   -1474.39622 -1474.39621 -1474.39621     0.00001     0.00003    -0.00000
  n-local  2352.23076  2352.53115  2352.13568     0.67323    -1.43811     0.76488
  augment  -238.95503  -238.95503  -238.95503     0.00000     0.00000    -0.00000
  Kinetic  3441.37943  3442.00505  3439.86508     1.18606    -2.53700     1.35095
  Fock        0.00000     0.00000     0.00000     0.00000     0.00000     0.00000
  -------------------------------------------------------------------------------------
  Total      12.36072    12.36072    12.36072    -0.00000    -0.00000    -0.00000
  in kB      19.75068    19.75068    19.75068    -0.00000    -0.00000    -0.00000
  external pressure =       19.75 kB  Pullay stress =        0.00 kB


 VOLUME and BASIS-vectors are now :
 -----------------------------------------------------------------------------
  energy-cutoff  :      360.00
  volume of cell :     1002.70
      direct lattice vectors                 reciprocal lattice vectors
    10.008999825  0.000000000  0.000000000     0.099910083  0.000000000  0.000000000
     0.000000000 10.008999825  0.000000000     0.000000000  0.099910083  0.000000000
     0.000000000  0.000000000 10.008999825     0.000000000  0.000000000  0.099910083

  length of vectors
    10.008999825 10.008999825 10.008999825     0.099910083  0.099910083  0.099910083


 FORCES acting on ions
    electron-ion (+dipol)            ewald-force                    non-local-force                 convergence-correction
 -----------------------------------------------------------------------------------------------
   -.632E-04 -.624E-04 -.628E-04   -.382E-04 -.305E-04 -.337E-04   -.200E-03 -.200E-03 -.200E-03   0.297E-03 0.296E-03 0.309E-03
   -.729E-04 -.748E-04 -.741E-04   -.213E-04 -.355E-04 -.307E-04   -.202E-03 -.202E-03 -.202E-03   0.300E-03 0.323E-03 0.303E-03
   0.665E-04 -.690E-04 0.672E-04   0.259E-04 -.245E-04 0.318E-04   0.193E-03 -.201E-03 0.193E-03   -.294E-03 0.297E-03 -.293E-03
   0.640E-04 -.693E-04 0.623E-04   0.387E-04 -.356E-04 0.265E-04   0.198E-03 -.197E-03 0.198E-03   -.301E-03 0.310E-03 -.295E-03
   -.708E-04 0.671E-04 0.673E-04   -.369E-04 0.311E-04 0.331E-04   -.201E-03 0.193E-03 0.193E-03   0.308E-03 -.295E-03 -.295E-03
   -.676E-04 0.626E-04 0.629E-04   -.247E-04 0.294E-04 0.318E-04   -.197E-03 0.198E-03 0.198E-03   0.290E-03 -.300E-03 -.289E-03
   0.655E-04 0.672E-04 -.699E-04   0.195E-04 0.322E-04 -.305E-04   0.193E-03 0.193E-03 -.201E-03   -.291E-03 -.288E-03 0.310E-03
   0.638E-04 0.630E-04 -.686E-04   0.383E-04 0.320E-04 -.304E-04   0.198E-03 0.198E-03 -.197E-03   -.296E-03 -.303E-03 0.298E-03
   -.641E-05 -.652E-05 -.665E-05   0.505E-05 0.489E-05 0.465E-05   0.357E-05 0.357E-05 0.357E-05   -.488E-05 -.465E-05 -.461E-05
   0.155E-05 0.116E-05 0.111E-04   -.301E-05 -.342E-05 -.121E-04   0.952E-06 0.778E-06 -.262E-05   0.696E-07 0.784E-06 0.498E-05
   0.901E-06 0.106E-05 0.111E-04   -.323E-05 -.281E-05 -.117E-04   0.778E-06 0.952E-06 -.262E-05   0.829E-06 0.118E-06 0.480E-05
   0.100E-05 0.113E-04 0.105E-05   -.299E-05 -.128E-04 -.309E-05   0.778E-06 -.262E-05 0.952E-06   0.618E-06 0.516E-05 0.234E-06
   0.118E-05 0.112E-04 0.129E-05   -.359E-05 -.122E-04 -.313E-05   0.952E-06 -.262E-05 0.778E-06   0.789E-06 0.489E-05 0.532E-06
   0.113E-04 0.118E-05 0.928E-06   -.116E-04 -.299E-05 -.371E-05   -.262E-05 0.952E-06 0.778E-06   0.469E-05 0.270E-06 0.104E-05
   0.112E-04 0.138E-05 0.147E-05   -.128E-04 -.244E-05 -.298E-05   -.262E-05 0.778E-06 0.952E-06   0.523E-05 0.159E-06 0.173E-06
   -.159E-04 0.120E-04 0.120E-04   0.185E-04 -.123E-04 -.119E-04   0.298E-05 -.285E-05 -.285E-05   -.562E-05 0.471E-05 0.431E-05
   -.401E-05 -.360E-05 -.122E-04   0.377E-05 0.400E-05 0.120E-04   0.576E-06 0.576E-06 0.338E-05   0.175E-06 -.142E-06 -.480E-05
   -.350E-05 -.360E-05 -.109E-04   0.411E-05 0.373E-05 0.112E-04   0.622E-06 0.622E-06 0.342E-05   -.427E-06 -.126E-06 -.531E-05
   -.345E-05 -.109E-04 -.342E-05   0.366E-05 0.118E-04 0.404E-05   0.622E-06 0.342E-05 0.622E-06   -.176E-07 -.567E-05 -.172E-06
   -.341E-05 -.122E-04 -.369E-05   0.427E-05 0.122E-04 0.334E-05   0.576E-06 0.338E-05 0.576E-06   -.420E-06 -.478E-05 0.343E-06
   0.119E-04 -.161E-04 0.116E-04   -.124E-04 0.188E-04 -.124E-04   -.285E-05 0.298E-05 -.285E-05   0.466E-05 -.585E-05 0.495E-05
   -.122E-04 -.361E-05 -.385E-05   0.120E-04 0.419E-05 0.380E-05   0.338E-05 0.576E-06 0.576E-06   -.475E-05 -.219E-06 0.105E-06
   -.109E-04 -.353E-05 -.325E-05   0.112E-04 0.223E-05 0.405E-05   0.342E-05 0.622E-06 0.622E-06   -.536E-05 0.730E-06 -.481E-06
   0.120E-04 0.122E-04 -.159E-04   -.127E-04 -.131E-04 0.190E-04   -.285E-05 -.285E-05 0.298E-05   0.494E-05 0.491E-05 -.596E-05
   -.429E+02 -.429E+02 -.429E+02   0.441E+02 0.441E+02 0.441E+02   -.121E+01 -.121E+01 -.121E+01   -.813E-03 -.818E-03 -.817E-03
   0.429E+02 0.429E+02 0.429E+02   -.441E+02 -.441E+02 -.441E+02   0.121E+01 0.121E+01 0.121E+01   0.765E-03 0.775E-03 0.771E-03
   0.429E+02 0.429E+02 -.429E+02   -.441E+02 -.441E+02 0.441E+02   0.121E+01 0.121E+01 -.121E+01   0.775E-03 0.796E-03 -.783E-03
   -.429E+02 -.429E+02 0.429E+02   0.441E+02 0.441E+02 -.441E+02   -.121E+01 -.121E+01 0.121E+01   -.815E-03 -.781E-03 0.808E-03
   0.429E+02 -.429E+02 0.429E+02   -.441E+02 0.441E+02 -.441E+02   0.121E+01 -.121E+01 0.121E+01   0.804E-03 -.784E-03 0.767E-03
   -.429E+02 0.429E+02 -.429E+02   0.441E+02 -.441E+02 0.441E+02   -.121E+01 0.121E+01 -.121E+01   -.786E-03 0.808E-03 -.809E-03
   -.429E+02 0.429E+02 0.429E+02   0.441E+02 -.441E+02 -.441E+02   -.121E+01 0.121E+01 0.121E+01   -.780E-03 0.773E-03 0.806E-03
   0.429E+02 -.429E+02 -.429E+02   -.441E+02 0.441E+02 0.441E+02   0.121E+01 -.121E+01 -.121E+01   0.804E-03 -.814E-03 -.787E-03
   -.429E+02 -.429E+02 0.429E+02   0.441E+02 0.441E+02 -.441E+02   -.121E+01 -.121E+01 0.121E+01   -.787E-03 -.807E-03 0.806E-03
   0.429E+02 0.429E+02 -.429E+02   -.441E+02 -.441E+02 0.441E+02   0.121E+01 0.121E+01 -.121E+01   0.804E-03 0.768E-03 -.781E-03
   -.429E+02 0.429E+02 -.429E+02   0.441E+02 -.441E+02 0.441E+02   -.121E+01 0.121E+01 -.121E+01   -.812E-03 0.806E-03 -.783E-03
   0.429E+02 -.429E+02 0.429E+02   -.441E+02 0.441E+02 -.441E+02   0.121E+01 -.121E+01 0.121E+01   0.774E-03 -.780E-03 0.797E-03
   0.429E+02 -.429E+02 -.429E+02   -.441E+02 0.441E+02 0.441E+02   0.121E+01 -.121E+01 -.121E+01   0.810E-03 -.787E-03 -.815E-03
   -.429E+02 0.429E+02 0.429E+02   0.441E+02 -.441E+02 -.441E+02   -.121E+01 0.121E+01 0.121E+01   -.784E-03 0.803E-03 0.775E-03
   -.429E+02 -.429E+02 -.429E+02   0.441E+02 0.441E+02 0.441E+02   -.121E+01 -.121E+01 -.121E+01   -.787E-03 -.785E-03 -.785E-03
   0.429E+02 0.429E+02 0.429E+02   -.441E+02 -.441E+02 -.441E+02   0.121E+01 0.121E+01 0.121E+01   0.791E-03 0.807E-03 0.803E-03
   0.429E+02 0.429E+02 -.429E+02   -.441E+02 -.441E+02 0.441E+02   0.121E+01 0.121E+01 -.121E+01   0.798E-03 0.793E-03 -.812E-03
   -.429E+02 -.429E+02 0.429E+02   0.441E+02 0.441E+02 -.441E+02   -.121E+01 -.121E+01 0.121E+01   -.793E-03 -.788E-03 0.772E-03
   0.429E+02 -.429E+02 0.429E+02   -.441E+02 0.441E+02 -.441E+02   0.121E+01 -.121E+01 0.121E+01   0.802E-03 -.794E-03 0.798E-03
   -.429E+02 0.429E+02 -.429E+02   0.441E+02 -.441E+02 0.441E+02   -.121E+01 0.121E+01 -.121E+01   -.784E-03 0.796E-03 -.777E-03
   -.429E+02 -.429E+02 0.429E+02   0.441E+02 0.441E+02 -.441E+02   -.121E+01 -.121E+01 0.121E+01   -.786E-03 -.778E-03 0.799E-03
   0.429E+02 0.429E+02 -.429E+02   -.441E+02 -.441E+02 0.441E+02   0.121E+01 0.121E+01 -.121E+01   0.806E-03 0.799E-03 -.796E-03
   -.429E+02 0.429E+02 -.429E+02   0.441E+02 -.441E+02 0.441E+02   -.121E+01 0.121E+01 -.121E+01   -.793E-03 0.777E-03 -.786E-03
   0.429E+02 -.429E+02 0.429E+02   -.441E+02 0.441E+02 -.441E+02   0.121E+01 -.121E+01 0.121E+01   0.796E-03 -.814E-03 0.793E-03
   -.429E+02 -.429E+02 -.429E+02   0.441E+02 0.441E+02 0.441E+02   -.121E+01 -.121E+01 -.121E+01   -.778E-03 -.795E-03 -.782E-03
   0.429E+02 0.429E+02 0.429E+02   -.441E+02 -.441E+02 -.441E+02   0.121E+01 0.121E+01 0.121E+01   0.797E-03 0.797E-03 0.806E-03
   -.429E+02 0.429E+02 0.429E+02   0.441E+02 -.441E+02 -.441E+02   -.121E+01 0.121E+01 0.121E+01   -.813E-03 0.798E-03 0.797E-03
   0.429E+02 -.429E+02 -.429E+02   -.441E+02 0.441E+02 0.441E+02   0.121E+01 -.121E+01 -.121E+01   0.774E-03 -.792E-03 -.794E-03
   0.429E+02 -.429E+02 -.429E+02   -.441E+02 0.441E+02 0.441E+02   0.121E+01 -.121E+01 -.121E+01   0.797E-03 -.783E-03 -.787E-03
   -.429E+02 0.429E+02 0.429E+02   0.441E+02 -.441E+02 -.441E+02   -.121E+01 0.121E+01 0.121E+01   -.794E-03 0.804E-03 0.804E-03
   -.429E+02 -.429E+02 -.429E+02   0.441E+02 0.441E+02 0.441E+02   -.121E+01 -.121E+01 -.121E+01   -.778E-03 -.787E-03 -.794E-03
   0.429E+02 0.429E+02 0.429E+02   -.441E+02 -.441E+02 -.441E+02   0.121E+01 0.121E+01 0.121E+01   0.800E-03 0.805E-03 0.794E-03
 -----------------------------------------------------------------------------------------------
   -.751E-04 -.669E-04 -.767E-04   -.107E-12 -.497E-13 -.249E-12   0.249E-04 0.249E-04 0.249E-04   0.285E-04 0.593E-04 0.582E-04
 
 
 POSITION                                       TOTAL-FORCE (eV/Angst)
 -----------------------------------------------------------------------------------
      1.25113      1.25113      1.25113         0.000004      0.000004      0.000004
      8.75787      8.75787      8.75787         0.000004      0.000004      0.000004
      6.25562      1.25113      6.25562        -0.000004      0.000004     -0.000004
      3.75337      8.75787      3.75337        -0.000004      0.000004     -0.000004
      1.25113      6.25562      6.25562         0.000004     -0.000004     -0.000004
      8.75787      3.75337      3.75337         0.000004     -0.000004     -0.000004
      6.25562      6.25562      1.25113        -0.000004     -0.000004      0.000004
      3.75337      3.75337      8.75787        -0.000004     -0.000004      0.000004
      5.00450      5.00450      5.00450        -0.000003     -0.000003     -0.000003
      2.50225      7.50675     10.00900        -0.000001     -0.000001      0.000001
      7.50675      2.50225     10.00900        -0.000001     -0.000001      0.000001
      7.50675     10.00900      2.50225        -0.000001      0.000001     -0.000001
      2.50225     10.00900      7.50675        -0.000001      0.000001     -0.000001
     10.00900      2.50225      7.50675         0.000001     -0.000001     -0.000001
     10.00900      7.50675      2.50225         0.000001     -0.000001     -0.000001
      5.00450     10.00900     10.00900        -0.000000      0.000001      0.000001
      2.50225      2.50225      5.00450         0.000001      0.000001     -0.000002
      7.50675      7.50675      5.00450         0.000001      0.000001     -0.000002
      7.50675      5.00450      7.50675         0.000001     -0.000002      0.000001
      2.50225      5.00450      2.50225         0.000001     -0.000002      0.000001
     10.00900      5.00450     10.00900         0.000001     -0.000000      0.000001
      5.00450      2.50225      2.50225        -0.000002      0.000001      0.000001
      5.00450      7.50675      7.50675        -0.000002      0.000001      0.000001
     10.00900     10.00900      5.00450         0.000001      0.000001     -0.000000
      2.59562      2.59562      2.59562         0.022349      0.022349      0.022349
      7.41338      7.41338      7.41338        -0.022346     -0.022346     -0.022346
      4.91113      9.91563      7.60012        -0.022346     -0.022348      0.022347
      5.09787      0.09337      2.40888         0.022349      0.022347     -0.022348
      9.91563      7.60012      4.91113        -0.022348      0.022347     -0.022346
      0.09337      2.40888      5.09787         0.022347     -0.022348      0.022349
      7.60012      4.91113      9.91563         0.022347     -0.022346     -0.022348
      2.40888      5.09787      0.09337        -0.022348      0.022349      0.022347
      0.09337      5.09787      2.40888         0.022347      0.022349     -0.022348
      9.91563      4.91113      7.60012        -0.022348     -0.022346      0.022347
      5.09787      2.40888      0.09337         0.022349     -0.022348      0.022347
      4.91113      7.60012      9.91563        -0.022346      0.022347     -0.022348
      2.40888      0.09337      5.09787        -0.022348      0.022347      0.022349
      7.60012      9.91563      4.91113         0.022347     -0.022348     -0.022346
      2.59562      7.60012      7.60012         0.022347      0.022347      0.022347
      7.41338      2.40888      2.40888        -0.022348     -0.022348     -0.022348
      4.91113      4.91113      2.59562        -0.022348     -0.022348      0.022349
      5.09787      5.09787      7.41338         0.022347      0.022347     -0.022346
      9.91563      2.59562      9.91563        -0.022349      0.022347     -0.022349
      0.09337      7.41338      0.09337         0.022347     -0.022349      0.022347
      0.09337      0.09337      7.41338         0.022347      0.022347     -0.022349
      9.91563      9.91563      2.59562        -0.022349     -0.022349      0.022347
      5.09787      7.41338      5.09787         0.022347     -0.022346      0.022347
      4.91113      2.59562      4.91113        -0.022348      0.022349     -0.022348
      7.60012      2.59562      7.60012         0.022347      0.022347      0.022347
      2.40888      7.41338      2.40888        -0.022348     -0.022348     -0.022348
      2.59562      4.91113      4.91113         0.022349     -0.022348     -0.022348
      7.41338      5.09787      5.09787        -0.022346      0.022347      0.022347
      7.41338      0.09337      0.09337        -0.022349      0.022347      0.022347
      2.59562      9.91563      9.91563         0.022347     -0.022349     -0.022349
      7.60012      7.60012      2.59562         0.022347      0.022347      0.022347
      2.40888      2.40888      7.41338        -0.022348     -0.022348     -0.022348
 -----------------------------------------------------------------------------------
    total drift:                               -0.000022      0.000017      0.000006


--------------------------------------------------------------------------------------------------------



  FREE ENERGIE OF THE ION-ELECTRON SYSTEM (eV)
  ---------------------------------------------------
  free  energy   TOTEN  =      -257.58792517 eV

  energy  without entropy=     -257.58792517  energy(sigma->0) =     -257.58792517
 


--------------------------------------------------------------------------------------------------------


    POTLOK:  cpu time      0.1206: real time      0.1222


--------------------------------------------------------------------------------------------------------


 writing wavefunctions
     LOOP+:  cpu time   1885.6779: real time   1896.7936
    4ORBIT:  cpu time      0.0000: real time      0.0000



 total charge

# of ion       s       p       d       tot
------------------------------------------
    1        0.518   0.476   9.794  10.788
    2        0.518   0.476   9.794  10.788
    3        0.518   0.476   9.794  10.788
    4        0.518   0.476   9.794  10.788
    5        0.518   0.476   9.794  10.788
    6        0.518   0.476   9.794  10.788
    7        0.518   0.476   9.794  10.788
    8        0.518   0.476   9.794  10.788
    9        0.333   0.342   0.000   0.675
   10        0.333   0.342   0.000   0.675
   11        0.333   0.342   0.000   0.675
   12        0.333   0.342   0.000   0.675
   13        0.333   0.342   0.000   0.675
   14        0.333   0.342   0.000   0.675
   15        0.333   0.342   0.000   0.675
   16        0.333   0.342   0.000   0.675
   17        0.333   0.342   0.000   0.675
   18        0.333   0.342   0.000   0.675
   19        0.333   0.342   0.000   0.675
   20        0.333   0.342   0.000   0.675
   21        0.333   0.342   0.000   0.675
   22        0.333   0.342   0.000   0.675
   23        0.333   0.342   0.000   0.675
   24        0.333   0.342   0.000   0.675
   25        1.322   2.472   0.000   3.794
   26        1.322   2.472   0.000   3.794
   27        1.322   2.472   0.000   3.794
   28        1.322   2.472   0.000   3.794
   29        1.322   2.472   0.000   3.794
   30        1.322   2.472   0.000   3.794
   31        1.322   2.472   0.000   3.794
   32        1.322   2.472   0.000   3.794
   33        1.322   2.472   0.000   3.794
   34        1.322   2.472   0.000   3.794
   35        1.322   2.472   0.000   3.794
   36        1.322   2.472   0.000   3.794
   37        1.322   2.472   0.000   3.794
   38        1.322   2.472   0.000   3.794
   39        1.322   2.472   0.000   3.794
   40        1.322   2.472   0.000   3.794
   41        1.322   2.472   0.000   3.794
   42        1.322   2.472   0.000   3.794
   43        1.322   2.472   0.000   3.794
   44        1.322   2.472   0.000   3.794
   45        1.322   2.472   0.000   3.794
   46        1.322   2.472   0.000   3.794
   47        1.322   2.472   0.000   3.794
   48        1.322   2.472   0.000   3.794
   49        1.322   2.472   0.000   3.794
   50        1.322   2.472   0.000   3.794
   51        1.322   2.472   0.000   3.794
   52        1.322   2.472   0.000   3.794
   53        1.322   2.472   0.000   3.794
   54        1.322   2.472   0.000   3.794
   55        1.322   2.472   0.000   3.794
   56        1.322   2.472   0.000   3.794
--------------------------------------------------
tot         51.785  88.366  78.349 218.500
 
 BZINTS: Fermi energy:    4.423123;  336.000000 electrons
         Band energy:-0.277053E+03;  BLOECHL correction:   -0.000000

 total amount of memory used by VASP MPI-rank0   829227. kBytes
=======================================================================

   base      :      30000. kBytes
   nonl-proj :     261332. kBytes
   fftplans  :      19641. kBytes
   grid      :       8388. kBytes
   one-center:        108. kBytes
   wavefun   :     509758. kBytes
 
  
  
 General timing and accounting informations for this job:
 ========================================================
  
                  Total CPU time used (sec):    24848.027
                            User time (sec):    24710.983
                          System time (sec):      137.043
                         Elapsed time (sec):    25019.952
  
                   Maximum memory used (kb):     1335452.
                   Average memory used (kb):          N/A
  
                          Minor page faults:      2549980
                          Major page faults:            0
                 Voluntary context switches:         5762
