# energy dos
-1.769950000000000045e+01 0.000000000000000000e+00
-1.769279999999999831e+01 0.000000000000000000e+00
-1.768619999999999948e+01 0.000000000000000000e+00
-1.767950000000000088e+01 0.000000000000000000e+00
-1.767279999999999873e+01 0.000000000000000000e+00
-1.766610000000000014e+01 0.000000000000000000e+00
-1.765939999999999799e+01 0.000000000000000000e+00
-1.765279999999999916e+01 0.000000000000000000e+00
-1.764610000000000056e+01 0.000000000000000000e+00
-1.763939999999999841e+01 0.000000000000000000e+00
-1.763269999999999982e+01 0.000000000000000000e+00
-1.762599999999999767e+01 0.000000000000000000e+00
-1.761929999999999907e+01 0.000000000000000000e+00
-1.761270000000000024e+01 0.000000000000000000e+00
-1.760599999999999810e+01 0.000000000000000000e+00
-1.759929999999999950e+01 0.000000000000000000e+00
-1.759260000000000090e+01 0.000000000000000000e+00
-1.758589999999999876e+01 0.000000000000000000e+00
-1.757929999999999993e+01 0.000000000000000000e+00
-1.757259999999999778e+01 0.000000000000000000e+00
-1.756589999999999918e+01 0.000000000000000000e+00
-1.755920000000000059e+01 0.000000000000000000e+00
-1.755249999999999844e+01 0.000000000000000000e+00
-1.754589999999999961e+01 0.000000000000000000e+00
-1.753920000000000101e+01 0.000000000000000000e+00
-1.753249999999999886e+01 0.000000000000000000e+00
-1.752580000000000027e+01 0.000000000000000000e+00
-1.751909999999999812e+01 0.000000000000000000e+00
-1.751249999999999929e+01 0.000000000000000000e+00
-1.750580000000000069e+01 0.000000000000000000e+00
-1.749909999999999854e+01 0.000000000000000000e+00
-1.749239999999999995e+01 0.000000000000000000e+00
-1.748569999999999780e+01 0.000000000000000000e+00
-1.747909999999999897e+01 0.000000000000000000e+00
-1.747240000000000038e+01 0.000000000000000000e+00
-1.746569999999999823e+01 0.000000000000000000e+00
-1.745899999999999963e+01 0.000000000000000000e+00
-1.745230000000000103e+01 0.000000000000000000e+00
-1.744569999999999865e+01 0.000000000000000000e+00
-1.743900000000000006e+01 0.000000000000000000e+00
-1.743229999999999791e+01 0.000000000000000000e+00
-1.742559999999999931e+01 0.000000000000000000e+00
-1.741890000000000072e+01 0.000000000000000000e+00
-1.741229999999999833e+01 0.000000000000000000e+00
-1.740559999999999974e+01 0.000000000000000000e+00
-1.739890000000000114e+01 0.000000000000000000e+00
-1.739219999999999899e+01 0.000000000000000000e+00
-1.738550000000000040e+01 0.000000000000000000e+00
-1.737889999999999802e+01 0.000000000000000000e+00
-1.737219999999999942e+01 0.000000000000000000e+00
-1.736550000000000082e+01 0.000000000000000000e+00
-1.735879999999999868e+01 0.000000000000000000e+00
-1.735210000000000008e+01 0.000000000000000000e+00
-1.734549999999999770e+01 0.000000000000000000e+00
-1.733879999999999910e+01 0.000000000000000000e+00
-1.733210000000000051e+01 0.000000000000000000e+00
-1.732539999999999836e+01 0.000000000000000000e+00
-1.731869999999999976e+01 0.000000000000000000e+00
-1.731210000000000093e+01 0.000000000000000000e+00
-1.730539999999999878e+01 0.000000000000000000e+00
-1.729870000000000019e+01 0.000000000000000000e+00
-1.729199999999999804e+01 0.000000000000000000e+00
-1.728529999999999944e+01 0.000000000000000000e+00
-1.727870000000000061e+01 0.000000000000000000e+00
-1.727199999999999847e+01 0.000000000000000000e+00
-1.726529999999999987e+01 0.000000000000000000e+00
-1.725859999999999772e+01 0.000000000000000000e+00
-1.725189999999999912e+01 0.000000000000000000e+00
-1.724530000000000030e+01 0.000000000000000000e+00
-1.723859999999999815e+01 0.000000000000000000e+00
-1.723189999999999955e+01 0.000000000000000000e+00
-1.722520000000000095e+01 0.000000000000000000e+00
-1.721849999999999881e+01 0.000000000000000000e+00
-1.721189999999999998e+01 0.000000000000000000e+00
-1.720519999999999783e+01 0.000000000000000000e+00
-1.719849999999999923e+01 0.000000000000000000e+00
-1.719180000000000064e+01 0.000000000000000000e+00
-1.718509999999999849e+01 0.000000000000000000e+00
-1.717849999999999966e+01 0.000000000000000000e+00
-1.717180000000000106e+01 0.000000000000000000e+00
-1.716509999999999891e+01 0.000000000000000000e+00
-1.715840000000000032e+01 0.000000000000000000e+00
-1.715169999999999817e+01 0.000000000000000000e+00
-1.714509999999999934e+01 0.000000000000000000e+00
-1.713840000000000074e+01 0.000000000000000000e+00
-1.713169999999999860e+01 0.000000000000000000e+00
-1.712500000000000000e+01 0.000000000000000000e+00
-1.711829999999999785e+01 0.000000000000000000e+00
-1.711159999999999926e+01 0.000000000000000000e+00
-1.710500000000000043e+01 0.000000000000000000e+00
-1.709829999999999828e+01 0.000000000000000000e+00
-1.709159999999999968e+01 0.000000000000000000e+00
-1.708490000000000109e+01 0.000000000000000000e+00
-1.707819999999999894e+01 0.000000000000000000e+00
-1.707160000000000011e+01 0.000000000000000000e+00
-1.706489999999999796e+01 0.000000000000000000e+00
-1.705819999999999936e+01 0.000000000000000000e+00
-1.705150000000000077e+01 0.000000000000000000e+00
-1.704479999999999862e+01 0.000000000000000000e+00
-1.703819999999999979e+01 0.000000000000000000e+00
-1.703149999999999764e+01 0.000000000000000000e+00
-1.702479999999999905e+01 0.000000000000000000e+00
-1.701810000000000045e+01 0.000000000000000000e+00
-1.701139999999999830e+01 0.000000000000000000e+00
-1.700479999999999947e+01 0.000000000000000000e+00
-1.699810000000000088e+01 0.000000000000000000e+00
-1.699139999999999873e+01 0.000000000000000000e+00
-1.698470000000000013e+01 0.000000000000000000e+00
-1.697799999999999798e+01 0.000000000000000000e+00
-1.697139999999999915e+01 0.000000000000000000e+00
-1.696470000000000056e+01 0.000000000000000000e+00
-1.695799999999999841e+01 0.000000000000000000e+00
-1.695129999999999981e+01 0.000000000000000000e+00
-1.694459999999999766e+01 0.000000000000000000e+00
-1.693799999999999883e+01 0.000000000000000000e+00
-1.693130000000000024e+01 0.000000000000000000e+00
-1.692459999999999809e+01 0.000000000000000000e+00
-1.691789999999999949e+01 0.000000000000000000e+00
-1.691120000000000090e+01 0.000000000000000000e+00
-1.690459999999999852e+01 0.000000000000000000e+00
-1.689789999999999992e+01 0.000000000000000000e+00
-1.689119999999999777e+01 0.000000000000000000e+00
-1.688449999999999918e+01 0.000000000000000000e+00
-1.687780000000000058e+01 0.000000000000000000e+00
-1.687119999999999820e+01 0.000000000000000000e+00
-1.686449999999999960e+01 0.000000000000000000e+00
-1.685780000000000101e+01 0.000000000000000000e+00
-1.685109999999999886e+01 0.000000000000000000e+00
-1.684440000000000026e+01 0.000000000000000000e+00
-1.683779999999999788e+01 0.000000000000000000e+00
-1.683109999999999928e+01 0.000000000000000000e+00
-1.682440000000000069e+01 0.000000000000000000e+00
-1.681769999999999854e+01 0.000000000000000000e+00
-1.681099999999999994e+01 0.000000000000000000e+00
-1.680440000000000111e+01 0.000000000000000000e+00
-1.679769999999999897e+01 0.000000000000000000e+00
-1.679100000000000037e+01 0.000000000000000000e+00
-1.678429999999999822e+01 0.000000000000000000e+00
-1.677759999999999962e+01 0.000000000000000000e+00
-1.677100000000000080e+01 0.000000000000000000e+00
-1.676429999999999865e+01 0.000000000000000000e+00
-1.675760000000000005e+01 0.000000000000000000e+00
-1.675089999999999790e+01 0.000000000000000000e+00
-1.674419999999999931e+01 0.000000000000000000e+00
-1.673760000000000048e+01 0.000000000000000000e+00
-1.673089999999999833e+01 0.000000000000000000e+00
-1.672419999999999973e+01 0.000000000000000000e+00
-1.671750000000000114e+01 0.000000000000000000e+00
-1.671079999999999899e+01 0.000000000000000000e+00
-1.670420000000000016e+01 0.000000000000000000e+00
-1.669749999999999801e+01 0.000000000000000000e+00
-1.669079999999999941e+01 0.000000000000000000e+00
-1.668410000000000082e+01 0.000000000000000000e+00
-1.667739999999999867e+01 0.000000000000000000e+00
-1.667079999999999984e+01 0.000000000000000000e+00
-1.666409999999999769e+01 0.000000000000000000e+00
-1.665739999999999910e+01 0.000000000000000000e+00
-1.665070000000000050e+01 0.000000000000000000e+00
-1.664399999999999835e+01 0.000000000000000000e+00
-1.663729999999999976e+01 0.000000000000000000e+00
-1.663070000000000093e+01 0.000000000000000000e+00
-1.662399999999999878e+01 0.000000000000000000e+00
-1.661730000000000018e+01 0.000000000000000000e+00
-1.661059999999999803e+01 0.000000000000000000e+00
-1.660389999999999944e+01 0.000000000000000000e+00
-1.659730000000000061e+01 0.000000000000000000e+00
-1.659059999999999846e+01 0.000000000000000000e+00
-1.658389999999999986e+01 0.000000000000000000e+00
-1.657719999999999771e+01 0.000000000000000000e+00
-1.657049999999999912e+01 0.000000000000000000e+00
-1.656390000000000029e+01 0.000000000000000000e+00
-1.655719999999999814e+01 0.000000000000000000e+00
-1.655049999999999955e+01 1.730592606704631928e-09
-1.654380000000000095e+01 4.660738924062769050e-09
-1.653709999999999880e+01 9.534131711486221881e-09
-1.653049999999999997e+01 1.749611332362742954e-08
-1.652379999999999782e+01 3.027398639085293018e-08
-1.651709999999999923e+01 5.214848166383723975e-08
-1.651040000000000063e+01 8.627300410114543074e-08
-1.650369999999999848e+01 1.403292208936366631e-07
-1.649709999999999965e+01 2.221276155701130964e-07
-1.649040000000000106e+01 3.455877874823189622e-07
-1.648369999999999891e+01 5.284208290089721493e-07
-1.647700000000000031e+01 7.944739428200482764e-07
-1.647029999999999816e+01 1.177011538440264906e-06
-1.646369999999999933e+01 1.718193760828821675e-06
-1.645700000000000074e+01 2.472242926101252929e-06
-1.645029999999999859e+01 3.507832086795982942e-06
-1.644359999999999999e+01 4.914137195645342146e-06
-1.643689999999999785e+01 6.797350485966266581e-06
-1.643029999999999902e+01 9.291870907888501513e-06
-1.642360000000000042e+01 1.255835532823803877e-05
-1.641689999999999827e+01 1.679191115623222290e-05
-1.641019999999999968e+01 2.222838665949628556e-05
-1.640350000000000108e+01 2.914870806131416328e-05
-1.639689999999999870e+01 3.788803250639351922e-05
-1.639020000000000010e+01 4.884901543466025633e-05
-1.638349999999999795e+01 6.250901976047534088e-05
-1.637679999999999936e+01 7.944000448082320866e-05
-1.637010000000000076e+01 1.003261539386564332e-04
-1.636349999999999838e+01 1.259809882395230207e-04
-1.635679999999999978e+01 1.573789072980600430e-04
-1.635009999999999764e+01 1.956797094934337655e-04
-1.634339999999999904e+01 2.422662142707415723e-04
-1.633670000000000044e+01 2.987790850292344064e-04
-1.633009999999999806e+01 3.671646493832196254e-04
-1.632339999999999947e+01 4.497244380558659740e-04
-1.631670000000000087e+01 5.491727060852100552e-04
-1.630999999999999872e+01 6.687018910421065878e-04
-1.630330000000000013e+01 8.120571000409679491e-04
-1.629669999999999774e+01 9.836225481188692714e-04
-1.628999999999999915e+01 1.188517197955429004e-03
-1.628330000000000055e+01 1.432706096521420367e-03
-1.627659999999999840e+01 1.723125415478193563e-03
-1.626989999999999981e+01 2.067821894614527926e-03
-1.626330000000000098e+01 2.476117239848055381e-03
-1.625659999999999883e+01 2.958778053960180524e-03
-1.624990000000000023e+01 3.528221128040207998e-03
-1.624319999999999808e+01 4.198729759429035285e-03
-1.623649999999999949e+01 4.986697253278753877e-03
-1.622990000000000066e+01 5.910895032509518726e-03
-1.622319999999999851e+01 6.992761722713956504e-03
-1.621649999999999991e+01 8.256725200728422948e-03
-1.620979999999999777e+01 9.730546079374442422e-03
-1.620309999999999917e+01 1.144569314873934880e-02
-1.619650000000000034e+01 1.343774892215520399e-02
-1.618979999999999819e+01 1.574684294419053526e-02
-1.618309999999999960e+01 1.841811673288214560e-02
-1.617640000000000100e+01 2.150222286523115547e-02
-1.616969999999999885e+01 2.505584978820896494e-02
-1.616300000000000026e+01 2.914228011934449913e-02
-1.615639999999999787e+01 3.383197838303320798e-02
-1.614969999999999928e+01 3.920319971032065060e-02
-1.614300000000000068e+01 4.534263068646036260e-02
-1.613629999999999853e+01 5.234604822799182600e-02
-1.612959999999999994e+01 6.031898726159230784e-02
-1.612300000000000111e+01 6.937742880294028858e-02
-1.611629999999999896e+01 7.964848542943443743e-02
-1.610960000000000036e+01 9.127108606949876912e-02
-1.610289999999999822e+01 1.043966511655408935e-01
-1.609619999999999962e+01 1.191897394626552364e-01
-1.608960000000000079e+01 1.358286740302915574e-01
-1.608289999999999864e+01 1.545061145334989117e-01
-1.607620000000000005e+01 1.754295842114818316e-01
-1.606949999999999790e+01 1.988219290403027417e-01
-1.606279999999999930e+01 2.249216900534148356e-01
-1.605620000000000047e+01 2.539833930886560287e-01
-1.604949999999999832e+01 2.862777223288986428e-01
-1.604279999999999973e+01 3.220915742507241553e-01
-1.603610000000000113e+01 3.617279758433815107e-01
-1.602939999999999898e+01 4.055058539923173111e-01
-1.602280000000000015e+01 4.537596300769256574e-01
-1.601609999999999800e+01 5.068386465440015698e-01
-1.600939999999999941e+01 5.651063835288715476e-01
-1.600270000000000081e+01 6.289394857839966102e-01
-1.599600000000000044e+01 6.987265578756662876e-01
-1.598939999999999984e+01 7.748667410152445534e-01
-1.598269999999999946e+01 8.577680443386415110e-01
-1.597600000000000087e+01 9.478454463254826212e-01
-1.596930000000000049e+01 1.045518744566144465e+00
-1.596260000000000012e+01 1.151210164378291934e+00
-1.595599999999999952e+01 1.265341733949010061e+00
-1.594930000000000092e+01 1.388332413958759171e+00
-1.594260000000000055e+01 1.520595019573363960e+00
-1.593590000000000018e+01 1.662532926517946930e+00
-1.592919999999999980e+01 1.814536595280270337e+00
-1.592260000000000097e+01 1.976979924900178709e+00
-1.591590000000000060e+01 2.150216472953990987e+00
-1.590920000000000023e+01 2.334575560866624766e+00
-1.590249999999999986e+01 2.530358312915541141e+00
-1.589579999999999949e+01 2.737833656700606966e+00
-1.588920000000000066e+01 2.957234326843594552e+00
-1.588250000000000028e+01 3.188752925605343513e+00
-1.587579999999999991e+01 3.432538076681153516e+00
-1.586909999999999954e+01 3.688690727629099886e+00
-1.586240000000000094e+01 3.957260652843656246e+00
-1.585580000000000034e+01 4.238243201759097190e+00
-1.584909999999999997e+01 4.531576365530454176e+00
-1.584239999999999959e+01 4.837138175418266961e+00
-1.583570000000000100e+01 5.154744529535887132e+00
-1.582900000000000063e+01 5.484147461243459531e+00
-1.582240000000000002e+01 5.825033913737935443e+00
-1.581569999999999965e+01 6.177025055482265437e+00
-1.580900000000000105e+01 6.539676176489026105e+00
-1.580230000000000068e+01 6.912477197868034828e+00
-1.579560000000000031e+01 7.294853821444842623e+00
-1.578899999999999970e+01 7.686169337266000490e+00
-1.578230000000000111e+01 8.085727108885750525e+00
-1.577560000000000073e+01 8.492773725857206912e+00
-1.576890000000000036e+01 8.906502841793734859e+00
-1.576219999999999999e+01 9.326059666495538636e+00
-1.575559999999999938e+01 9.750546111279419392e+00
-1.574890000000000079e+01 1.017902653419729653e+01
-1.574220000000000041e+01 1.061053408085644456e+01
-1.573550000000000004e+01 1.104407754132183150e+01
-1.572879999999999967e+01 1.147864869677124489e+01
-1.572220000000000084e+01 1.191323008494273417e+01
-1.571550000000000047e+01 1.234680311086738769e+01
-1.570880000000000010e+01 1.277835644808494564e+01
-1.570209999999999972e+01 1.320689463185500934e+01
-1.569540000000000113e+01 1.363144678413238076e+01
-1.568870000000000076e+01 1.405107536326844375e+01
-1.568210000000000015e+01 1.446488487586027816e+01
-1.567539999999999978e+01 1.487203044189391399e+01
-1.566869999999999941e+01 1.527172614319933430e+01
-1.566200000000000081e+01 1.566325306202976364e+01
-1.565530000000000044e+01 1.604596692863784213e+01
-1.564869999999999983e+01 1.641930530304104607e+01
-1.564199999999999946e+01 1.678279420919526999e+01
-1.563530000000000086e+01 1.713605416991704544e+01
-1.562860000000000049e+01 1.747880556066791158e+01
-1.562190000000000012e+01 1.781087325701795621e+01
-1.561529999999999951e+01 1.813219049769931246e+01
-1.560860000000000092e+01 1.844280195958983626e+01
-1.560190000000000055e+01 1.874286599965606115e+01
-1.559520000000000017e+01 1.903265604723614501e+01
-1.558849999999999980e+01 1.931256115170797116e+01
-1.558190000000000097e+01 1.958308566162433095e+01
-1.557520000000000060e+01 1.984484808002622813e+01
-1.556850000000000023e+01 2.009857908271053262e+01
-1.556179999999999986e+01 2.034511873490884426e+01
-1.555509999999999948e+01 2.058541295842753271e+01
-1.554850000000000065e+01 2.082050925347781600e+01
-1.554180000000000028e+01 2.105155175383099930e+01
-1.553509999999999991e+01 2.127977564110054232e+01
-1.552839999999999954e+01 2.150650097997308308e+01
-1.552170000000000094e+01 2.173312602688880801e+01
-1.551510000000000034e+01 2.196112007162493995e+01
-1.550839999999999996e+01 2.219201585816408695e+01
-1.550169999999999959e+01 2.242740165106528138e+01
-1.549500000000000099e+01 2.266891298668129551e+01
-1.548830000000000062e+01 2.291822417302565640e+01
-1.548170000000000002e+01 2.317703957315051966e+01
-1.547499999999999964e+01 2.344708471796972660e+01
-1.546830000000000105e+01 2.373009728758409764e+01
-1.546160000000000068e+01 2.402781799403566865e+01
-1.545490000000000030e+01 2.434198138117126575e+01
-1.544829999999999970e+01 2.467430657667785709e+01
-1.544160000000000110e+01 2.502648800366155157e+01
-1.543490000000000073e+01 2.540018606406405866e+01
-1.542820000000000036e+01 2.579701780020034363e+01
-1.542149999999999999e+01 2.621854753944537464e+01
-1.541489999999999938e+01 2.666627751035541394e+01
-1.540820000000000078e+01 2.714163844746571641e+01
-1.540150000000000041e+01 2.764598015198599157e+01
-1.539480000000000004e+01 2.818056203224356437e+01
-1.538809999999999967e+01 2.874654359418510197e+01
-1.538150000000000084e+01 2.934497490442487333e+01
-1.537480000000000047e+01 2.997678700108512828e+01
-1.536810000000000009e+01 3.064278229390405883e+01
-1.536139999999999972e+01 3.134362492405399436e+01
-1.535470000000000113e+01 3.207983114185950058e+01
-1.534810000000000052e+01 3.285175970242126908e+01
-1.534140000000000015e+01 3.365960234032237963e+01
-1.533469999999999978e+01 3.450337434793101465e+01
-1.532799999999999940e+01 3.538290533364639145e+01
-1.532130000000000081e+01 3.629783021963896772e+01
-1.531470000000000020e+01 3.724758056454432875e+01
-1.530799999999999983e+01 3.823137630614743898e+01
-1.530129999999999946e+01 3.924821801583960479e+01
-1.529460000000000086e+01 4.029687979830858069e+01
-1.528790000000000049e+01 4.137590294132655799e+01
-1.528129999999999988e+01 4.248359046629548175e+01
-1.527459999999999951e+01 4.361800269926646223e+01
-1.526790000000000092e+01 4.477695402727315610e+01
-1.526120000000000054e+01 4.595801097327802154e+01
-1.525450000000000017e+01 4.715849174156493717e+01
-1.524789999999999957e+01 4.837546739048854505e+01
-1.524120000000000097e+01 4.960576475185462186e+01
-1.523450000000000060e+01 5.084597125852005917e+01
-1.522780000000000022e+01 5.209244177041883006e+01
-1.522109999999999985e+01 5.334130754262632479e+01
-1.521450000000000102e+01 5.458848738882651475e+01
-1.520780000000000065e+01 5.582970114713187115e+01
-1.520110000000000028e+01 5.706048546417675027e+01
-1.519439999999999991e+01 5.827621193571961555e+01
-1.518769999999999953e+01 5.947210758222670535e+01
-1.518100000000000094e+01 6.064327763550500805e+01
-1.517440000000000033e+01 6.178473054763585282e+01
-1.516769999999999996e+01 6.289140511665028299e+01
-1.516099999999999959e+01 6.395819960187474607e+01
-1.515430000000000099e+01 6.498000263463032411e+01
-1.514760000000000062e+01 6.595172571304942721e+01
-1.514100000000000001e+01 6.686833705259495275e+01
-1.513429999999999964e+01 6.772489648925899530e+01
-1.512760000000000105e+01 6.851659115036254377e+01
-1.512090000000000067e+01 6.923877155006164230e+01
-1.511420000000000030e+01 6.988698774864046470e+01
-1.510759999999999970e+01 7.045702520699607874e+01
-1.510090000000000110e+01 7.094493995198536140e+01
-1.509420000000000073e+01 7.134709265072436324e+01
-1.508750000000000036e+01 7.166018119049719814e+01
-1.508079999999999998e+01 7.188127138250473536e+01
-1.507419999999999938e+01 7.200782539081887990e+01
-1.506750000000000078e+01 7.203772752470057128e+01
-1.506080000000000041e+01 7.196930703988579126e+01
-1.505410000000000004e+01 7.180135763002721205e+01
-1.504739999999999966e+01 7.153315333143289934e+01
-1.504080000000000084e+01 7.116446056847036061e+01
-1.503410000000000046e+01 7.069554615652822349e+01
-1.502740000000000009e+01 7.012718109949599921e+01
-1.502069999999999972e+01 6.946064006428510140e+01
-1.501400000000000112e+01 6.869769648726570210e+01
-1.500740000000000052e+01 6.784061331631203018e+01
-1.500070000000000014e+01 6.689212942903348846e+01
-1.499399999999999977e+01 6.585544186267534883e+01
-1.498729999999999940e+01 6.473418399889287400e+01
-1.498060000000000080e+01 6.353239994134369795e+01
-1.497400000000000020e+01 6.225451533381743729e+01
-1.496729999999999983e+01 6.090530496005517591e+01
-1.496059999999999945e+01 5.948985744087757155e+01
-1.495390000000000086e+01 5.801353745973457876e+01
-1.494720000000000049e+01 5.648194590874842902e+01
-1.494059999999999988e+01 5.490087840370611616e+01
-1.493389999999999951e+01 5.327628263349936333e+01
-1.492720000000000091e+01 5.161421500573245424e+01
-1.492050000000000054e+01 4.992079707185059334e+01
-1.491380000000000017e+01 4.820217218288923533e+01
-1.490719999999999956e+01 4.646446284910290814e+01
-1.490050000000000097e+01 4.471372923291171020e+01
-1.489380000000000059e+01 4.295592919829192624e+01
-1.488710000000000022e+01 4.119688030229293219e+01
-1.488039999999999985e+01 3.944222407404392072e+01
-1.487380000000000102e+01 3.769739290851111235e+01
-1.486710000000000065e+01 3.596757984723527812e+01
-1.486040000000000028e+01 3.425771145985755339e+01
-1.485369999999999990e+01 3.257242402644632762e+01
-1.484699999999999953e+01 3.091604314825441335e+01
-1.484040000000000070e+01 2.929256686785750929e+01
-1.483370000000000033e+01 2.770565234766942098e+01
-1.482699999999999996e+01 2.615860609170726292e+01
-1.482029999999999959e+01 2.465437767327641794e+01
-1.481360000000000099e+01 2.319555684844391408e+01
-1.480700000000000038e+01 2.178437396094504663e+01
-1.480030000000000001e+01 2.042270344527796411e+01
-1.479359999999999964e+01 1.911207024103118712e+01
-1.478690000000000104e+01 1.785365890677668332e+01
-1.478020000000000067e+01 1.664832517305063320e+01
-1.477360000000000007e+01 1.549660968621445356e+01
-1.476689999999999969e+01 1.439875366839523352e+01
-1.476020000000000110e+01 1.335471620996944075e+01
-1.475350000000000072e+01 1.236419291115441510e+01
-1.474680000000000035e+01 1.142663560109354393e+01
-1.474019999999999975e+01 1.054127284180723478e+01
-1.473349999999999937e+01 9.707130960721368496e+00
-1.472680000000000078e+01 8.923055342964660852e+00
-1.472010000000000041e+01 8.187731758339651833e+00
-1.471340000000000003e+01 7.499707473622621023e+00
-1.470669999999999966e+01 6.857411975541232607e+00
-1.470010000000000083e+01 6.259177085399480589e+00
-1.469340000000000046e+01 5.703256328225192462e+00
-1.468670000000000009e+01 5.187843396139379060e+00
-1.467999999999999972e+01 4.711089600253834497e+00
-1.467330000000000112e+01 4.271120202992734427e+00
-1.466670000000000051e+01 3.866049564756528500e+00
-1.466000000000000014e+01 3.493995040876678448e+00
-1.465329999999999977e+01 3.153089606950053359e+00
-1.464659999999999940e+01 2.841493182256281003e+00
-1.463990000000000080e+01 2.557402660809276362e+00
-1.463330000000000020e+01 2.299060669526620693e+00
-1.462659999999999982e+01 2.064763076806045650e+00
-1.461989999999999945e+01 1.852865296671806883e+00
-1.461320000000000086e+01 1.661787442359363931e+00
-1.460650000000000048e+01 1.490018391187162505e+00
-1.459989999999999988e+01 1.336118828404111003e+00
-1.459319999999999951e+01 1.198723346385786037e+00
-1.458650000000000091e+01 1.076541667767999311e+00
-1.457980000000000054e+01 9.683590906809470544e-01
-1.457310000000000016e+01 8.730362117096768237e-01
-1.456649999999999956e+01 7.895080350521911372e-01
-1.455980000000000096e+01 7.167825219444884377e-01
-1.455310000000000059e+01 6.539386798467937689e-01
-1.454640000000000022e+01 6.001242446349819293e-01
-1.453969999999999985e+01 5.545530390721360448e-01
-1.453310000000000102e+01 5.165020707017266011e-01
-1.452640000000000065e+01 4.853084318422428156e-01
-1.451970000000000027e+01 4.603660531594621075e-01
-1.451299999999999990e+01 4.411223601654516990e-01
-1.450629999999999953e+01 4.270748963766392015e-01
-1.449970000000000070e+01 4.177679330725515006e-01
-1.449300000000000033e+01 4.127891130895204319e-01
-1.448629999999999995e+01 4.117661583758505106e-01
-1.447959999999999958e+01 4.143636670706207226e-01
-1.447290000000000099e+01 4.202800252185187047e-01
-1.446630000000000038e+01 4.292444495723302667e-01
-1.445960000000000001e+01 4.410141668203531040e-01
-1.445289999999999964e+01 4.553717619767103653e-01
-1.444620000000000104e+01 4.721226756667947222e-01
-1.443950000000000067e+01 4.910928705750612355e-01
-1.443290000000000006e+01 5.121266673480798781e-01
-1.442619999999999969e+01 5.350847462136139043e-01
-1.441950000000000109e+01 5.598423044790343805e-01
-1.441280000000000072e+01 5.862873761890936564e-01
-1.440610000000000035e+01 6.143193046460386775e-01
-1.439949999999999974e+01 6.438473556729675806e-01
-1.439280000000000115e+01 6.747894637388459627e-01
-1.438610000000000078e+01 7.070711144116808011e-01
-1.437940000000000040e+01 7.406243325605339489e-01
-1.437270000000000003e+01 7.753867866409820397e-01
-1.436609999999999943e+01 8.113009906945612970e-01
-1.435940000000000083e+01 8.483135922115045968e-01
-1.435270000000000046e+01 8.863747461505661063e-01
-1.434600000000000009e+01 9.254375535915567719e-01
-1.433929999999999971e+01 9.654575666698086422e-01
-1.433270000000000088e+01 1.006392347330580916e+00
-1.432600000000000051e+01 1.048201073545316886e+00
-1.431930000000000014e+01 1.090844189364907679e+00
-1.431259999999999977e+01 1.134283079893882107e+00
-1.430589999999999939e+01 1.178479789789798060e+00
-1.429930000000000057e+01 1.223396757438398597e+00
-1.429260000000000019e+01 1.268996575239957014e+00
-1.428589999999999982e+01 1.315241767493867675e+00
-1.427919999999999945e+01 1.362094587966039771e+00
-1.427250000000000085e+01 1.409516836525111838e+00
-1.426590000000000025e+01 1.457469681567634456e+00
-1.425919999999999987e+01 1.505913513502254997e+00
-1.425249999999999950e+01 1.554807805265038256e+00
-1.424580000000000091e+01 1.604110987455836135e+00
-1.423910000000000053e+01 1.653780353030673611e+00
-1.423240000000000016e+01 1.703771970826359228e+00
-1.422579999999999956e+01 1.754040625263641573e+00
-1.421910000000000096e+01 1.804539770879485250e+00
-1.421240000000000059e+01 1.855221515043648406e+00
-1.420570000000000022e+01 1.906036619247462482e+00
-1.419899999999999984e+01 1.956934524723883628e+00
-1.419240000000000101e+01 2.007863397906048952e+00
-1.418570000000000064e+01 2.058770200074429901e+00
-1.417900000000000027e+01 2.109600778383054820e+00
-1.417229999999999990e+01 2.160299974034171733e+00
-1.416559999999999953e+01 2.210811754890980474e+00
-1.415900000000000070e+01 2.261079356275939034e+00
-1.415230000000000032e+01 2.311045441535727107e+00
-1.414559999999999995e+01 2.360652275664513855e+00
-1.413889999999999958e+01 2.409841898284746264e+00
-1.413220000000000098e+01 2.458556317496915611e+00
-1.412560000000000038e+01 2.506737691249181665e+00
-1.411890000000000001e+01 2.554328514279444295e+00
-1.411219999999999963e+01 2.601271807106345868e+00
-1.410550000000000104e+01 2.647511291234405206e+00
-1.409880000000000067e+01 2.692991563269220290e+00
-1.409220000000000006e+01 2.737658248756139834e+00
-1.408549999999999969e+01 2.781458157619786764e+00
-1.407880000000000109e+01 2.824339423480702216e+00
-1.407210000000000072e+01 2.866251625429544259e+00
-1.406540000000000035e+01 2.907145906489873255e+00
-1.405879999999999974e+01 2.946975077749211192e+00
-1.405210000000000115e+01 2.985693717885429699e+00
-1.404540000000000077e+01 3.023258264175550103e+00
-1.403870000000000040e+01 3.059627102800214438e+00
-1.403200000000000003e+01 3.094760662913489835e+00
-1.402539999999999942e+01 3.128621513491902650e+00
-1.401870000000000083e+01 3.161174464203062140e+00
-1.401200000000000045e+01 3.192386691984528291e+00
-1.400530000000000008e+01 3.222227872743430588e+00
-1.399859999999999971e+01 3.250670340892445775e+00
-1.399200000000000088e+01 3.277689269392184634e+00
-1.398530000000000051e+01 3.303262877311778478e+00
-1.397860000000000014e+01 3.327372665681298969e+00
-1.397189999999999976e+01 3.350003684925940473e+00
-1.396519999999999939e+01 3.371144830367871492e+00
-1.395860000000000056e+01 3.390789159728662572e+00
-1.395190000000000019e+01 3.408934247795166961e+00
-1.394519999999999982e+01 3.425582548301151053e+00
-1.393849999999999945e+01 3.440741784150846527e+00
-1.393180000000000085e+01 3.454425345023022675e+00
-1.392520000000000024e+01 3.466652679476328824e+00
-1.391849999999999987e+01 3.477449692134662929e+00
-1.391179999999999950e+01 3.486849118532945102e+00
-1.390510000000000090e+01 3.494890877393540762e+00
-1.389840000000000053e+01 3.501622382506312636e+00
-1.389179999999999993e+01 3.507098810329053240e+00
-1.388509999999999955e+01 3.511383311579416411e+00
-1.387840000000000096e+01 3.514547146064041172e+00
-1.387170000000000059e+01 3.516669742452901648e+00
-1.386500000000000021e+01 3.517838664280672933e+00
-1.385839999999999961e+01 3.518149485552437117e+00
-1.385170000000000101e+01 3.517705543788131717e+00
-1.384500000000000064e+01 3.516617594963678872e+00
-1.383830000000000027e+01 3.515003341748684562e+00
-1.383159999999999989e+01 3.512986845741127961e+00
-1.382500000000000107e+01 3.510697817090632888e+00
-1.381830000000000069e+01 3.508270783581695085e+00
-1.381160000000000032e+01 3.505844148522909265e+00
-1.380489999999999995e+01 3.503559136096642934e+00
-1.379819999999999958e+01 3.501558634279378968e+00
-1.379160000000000075e+01 3.499985955066668097e+00
-1.378490000000000038e+01 3.498983505137528649e+00