/scratch/aleks/calculations/VASP/workfunction/Si_001/opt
Wed Oct 16 15:46:54 EEST 2024
 running on   36 total cores
 distrk:  each k-point on   36 cores,    1 groups
 distr:  one band on    6 cores,    6 groups
 vasp.6.3.2 27Jun22 (build Sep 20 2022 16:10:27) complex                        
  
 POSCAR found type information on POSCAR Si
 POSCAR found :  1 types and     234 ions
 Reading from existing POTCAR
 scaLAPACK will be used
 Reading from existing POTCAR
 LDA part: xc-table for Pade appr. of Perdew
 POSCAR, INCAR and KPOINTS ok, starting setup
 FFT: planning ... GRIDC
 FFT: planning ... GRID_SOFT
 FFT: planning ... GRID
 WAVECAR not read
 entering main loop
       N       E                     dE             d eps       ncg     rms          rms(c)
RMM:   1     0.639632954103E+04    0.63963E+04   -0.19684E+05  2940   0.736E+02
RMM:   2     0.131685782779E+04   -0.50795E+04   -0.56296E+04  2940   0.170E+02
RMM:   3    -0.197432123671E+03   -0.15143E+04   -0.18170E+04  2940   0.874E+01
RMM:   4    -0.788063443836E+03   -0.59063E+03   -0.54918E+03  2940   0.584E+01
RMM:   5    -0.101486122553E+04   -0.22680E+03   -0.20644E+03  2940   0.357E+01
RMM:   6    -0.111848679503E+04   -0.10363E+03   -0.91636E+02  2940   0.253E+01
RMM:   7    -0.116655082617E+04   -0.48064E+02   -0.44764E+02  2940   0.174E+01
RMM:   8    -0.119148821216E+04   -0.24937E+02   -0.22970E+02  2940   0.129E+01
RMM:   9    -0.120421977191E+04   -0.12732E+02   -0.12175E+02  2940   0.921E+00
RMM:  10    -0.121115784899E+04   -0.69381E+01   -0.66252E+01  2940   0.690E+00
RMM:  11    -0.121494779619E+04   -0.37899E+01   -0.36894E+01  2940   0.500E+00
RMM:  12    -0.121710825500E+04   -0.21605E+01   -0.20965E+01  2940   0.378E+00
RMM:  13    -0.121834442349E+04   -0.12362E+01   -0.12128E+01  2940   0.276E+00
RMM:  14    -0.121907329020E+04   -0.72887E+00   -0.71239E+00  2940   0.211E+00
RMM:  15    -0.122014181351E+04   -0.10685E+01   -0.10617E+01  8294   0.156E+00
RMM:  16    -0.122017996239E+04   -0.38149E-01   -0.24889E-01  8230   0.207E-01
RMM:  17    -0.122018222988E+04   -0.22675E-02   -0.18394E-02  8234   0.522E-02
RMM:  18    -0.122018265764E+04   -0.42776E-03   -0.41798E-03  6648   0.207E-02
RMM:  19    -0.122018273990E+04   -0.82253E-04   -0.77353E-04  5490   0.848E-03
RMM:  20    -0.122018276074E+04   -0.20840E-04   -0.21006E-04  4765   0.389E-03    0.507E+01
RMM:  21    -0.121302284051E+04    0.71599E+01   -0.64230E+01 10622   0.298E+00    0.400E+01
RMM:  22    -0.144693340357E+04   -0.23391E+03   -0.66931E+02 10622   0.780E+00    0.454E+01
RMM:  23    -0.123659206977E+04    0.21034E+03   -0.50935E+02 10594   0.883E+00    0.184E+01
RMM:  24    -0.119863173444E+04    0.37960E+02   -0.39638E+01 10596   0.314E+00    0.546E+00
RMM:  25    -0.124055804192E+04   -0.41926E+02   -0.22895E+01 10606   0.151E+00    0.162E+01
RMM:  26    -0.119723354459E+04    0.43324E+02   -0.11660E+01 10610   0.118E+00    0.256E+00
RMM:  27    -0.119750167417E+04   -0.26813E+00   -0.12212E+00 10622   0.455E-01    0.311E+00
RMM:  28    -0.119715357719E+04    0.34810E+00   -0.72228E-01 10614   0.319E-01    0.213E+00
RMM:  29    -0.119701219948E+04    0.14138E+00   -0.22202E-01 10610   0.235E-01    0.135E+00
RMM:  30    -0.119708442057E+04   -0.72221E-01   -0.24838E-01 10532   0.191E-01    0.158E+00
RMM:  31    -0.119696180366E+04    0.12262E+00   -0.13876E-01 10422   0.160E-01    0.542E-01
RMM:  32    -0.119695823824E+04    0.35654E-02   -0.32588E-02  9158   0.784E-02    0.433E-01
RMM:  33    -0.119695932702E+04   -0.10888E-02   -0.17517E-02  8298   0.556E-02    0.351E-01
RMM:  34    -0.119695893373E+04    0.39329E-03   -0.11706E-02  7942   0.457E-02    0.292E-01
RMM:  35    -0.119695625947E+04    0.26743E-02   -0.62521E-03  7526   0.385E-02    0.156E-01
RMM:  36    -0.119695624792E+04    0.11548E-04   -0.36643E-03  7236   0.313E-02    0.148E-01
RMM:  37    -0.119695501761E+04    0.12303E-02   -0.22186E-03  7019   0.233E-02    0.767E-02
RMM:  38    -0.119695465088E+04    0.36672E-03   -0.65491E-04  6600   0.147E-02    0.376E-02
RMM:  39    -0.119695459495E+04    0.55934E-04   -0.49393E-04  6925   0.110E-02    0.258E-02
RMM:  40    -0.119695461043E+04   -0.15488E-04   -0.10447E-04  6525   0.635E-03    0.277E-02
RMM:  41    -0.119695458196E+04    0.28471E-04   -0.43748E-05  5865   0.417E-03    0.159E-02
RMM:  42    -0.119695458173E+04    0.23042E-06   -0.30079E-05  6057   0.354E-03    0.105E-02
RMM:  43    -0.119695458110E+04    0.63695E-06   -0.10575E-05  5583   0.230E-03    0.780E-03
RMM:  44    -0.119695457970E+04    0.13918E-05   -0.48484E-06  4573   0.157E-03    0.539E-03
RMM:  45    -0.119695457942E+04    0.28286E-06   -0.31348E-06  4183   0.113E-03
   1 F= -.12271510E+04 E0= -.12270825E+04  d E =-.122715E+04
 curvature:   0.00 expect dE= 0.000E+00 dE for cont linesearch  0.000E+00
 trial: gam= 0.00000 g(F)=  0.117E-02 g(S)=  0.000E+00 ort = 0.000E+00 (trialstep = 0.100E+01)
 search vector abs. value=  0.117E-02
 bond charge predicted
       N       E                     dE             d eps       ncg     rms          rms(c)
RMM:   1    -0.119695561809E+04   -0.10384E-02   -0.13213E-03  5915   0.333E-02    0.139E-02
RMM:   2    -0.119695564693E+04   -0.28841E-04   -0.14283E-04  6294   0.134E-02    0.176E-02
RMM:   3    -0.119695566450E+04   -0.17575E-04   -0.41400E-05  6694   0.612E-03    0.236E-02
RMM:   4    -0.119695563625E+04    0.28257E-04   -0.12231E-05  5362   0.290E-03    0.117E-02
RMM:   5    -0.119695563415E+04    0.20975E-05   -0.24147E-06  3923   0.143E-03    0.101E-02
RMM:   6    -0.119695563474E+04   -0.58993E-06   -0.32500E-06  4166   0.115E-03
   2 F= -.12271521E+04 E0= -.12270836E+04  d E =-.111394E-02
 ZBRENT: can't locate minimum, use default step
 trial-energy change:   -0.001114  1 .order   -0.001115   -0.001173   -0.001057
 step:   4.0000(harm= 10.1040)  dis= 0.00106  next Energy= -1227.156955 (dE=-0.592E-02)
 bond charge predicted
       N       E                     dE             d eps       ncg     rms          rms(c)
RMM:   1    -0.119695809842E+04   -0.24643E-02   -0.11726E-02  5904   0.995E-02    0.419E-02
RMM:   2    -0.119695828189E+04   -0.18347E-03   -0.13907E-03  6282   0.402E-02    0.410E-02
RMM:   3    -0.119695875932E+04   -0.47743E-03   -0.39734E-04  6824   0.184E-02    0.919E-02
RMM:   4    -0.119695831365E+04    0.44567E-03   -0.15175E-04  6401   0.949E-03    0.453E-02
RMM:   5    -0.119695824890E+04    0.64746E-04   -0.41257E-05  5708   0.526E-03    0.315E-02
RMM:   6    -0.119695826514E+04   -0.16237E-04   -0.54645E-05  5863   0.390E-03    0.295E-02
RMM:   7    -0.119695826579E+04   -0.65762E-06   -0.58252E-05  6030   0.430E-03    0.233E-02
RMM:   8    -0.119695825255E+04    0.13247E-04   -0.71630E-05  6460   0.424E-03    0.120E-02
RMM:   9    -0.119695824890E+04    0.36456E-05   -0.95052E-06  5613   0.260E-03    0.100E-02
RMM:  10    -0.119695824742E+04    0.14780E-05   -0.52646E-06  4433   0.159E-03    0.952E-03
RMM:  11    -0.119695824484E+04    0.25875E-05   -0.49711E-06  4733   0.148E-03    0.689E-03
RMM:  12    -0.119695824416E+04    0.67457E-06   -0.30305E-06  4071   0.114E-03
   3 F= -.12271549E+04 E0= -.12270863E+04  d E =-.390149E-02
 curvature:  -2.78 expect dE=-0.151E-02 dE for cont linesearch -0.141E-02
 ZBRENT: increasing intervall
 opt :  10.0000  next Energy= -1227.157829 (dE=-0.680E-02)
 bond charge predicted
       N       E                     dE             d eps       ncg     rms          rms(c)
RMM:   1    -0.119695983888E+04   -0.15940E-02   -0.48159E-02  5904   0.200E-01    0.825E-02
RMM:   2    -0.119696041958E+04   -0.58071E-03   -0.55461E-03  6276   0.812E-02    0.585E-02
RMM:   3    -0.119696385292E+04   -0.34333E-02   -0.17398E-03  6906   0.371E-02    0.228E-01
RMM:   4    -0.119696045885E+04    0.33941E-02   -0.49144E-04  6300   0.185E-02    0.572E-02
RMM:   5    -0.119696052813E+04   -0.69282E-04   -0.25660E-04  6902   0.108E-02    0.602E-02
RMM:   6    -0.119696050044E+04    0.27698E-04   -0.12332E-04  6030   0.682E-03    0.472E-02
RMM:   7    -0.119696046686E+04    0.33579E-04   -0.24681E-04  6629   0.780E-03    0.278E-02
RMM:   8    -0.119696049706E+04   -0.30200E-04   -0.94980E-05  6136   0.643E-03    0.273E-02
RMM:   9    -0.119696046973E+04    0.27327E-04   -0.35609E-05  6102   0.413E-03    0.192E-02
RMM:  10    -0.119696045931E+04    0.10415E-04   -0.15646E-05  5658   0.289E-03    0.151E-02
RMM:  11    -0.119696045312E+04    0.61948E-05   -0.14077E-05  5745   0.251E-03    0.103E-02
RMM:  12    -0.119696045023E+04    0.28915E-05   -0.13946E-05  5951   0.244E-03    0.544E-03
RMM:  13    -0.119696045028E+04   -0.48953E-07   -0.28659E-06  3940   0.148E-03
   4 F= -.12271575E+04 E0= -.12270889E+04  d E =-.647397E-02
 curvature:  -5.73 expect dE=-0.826E-03 dE for cont linesearch -0.432E-04
 ZBRENT: extrapolating
 opt :  10.8343  next Energy= -1227.157543 (dE=-0.651E-02)
 bond charge predicted
       N       E                     dE             d eps       ncg     rms          rms(c)
RMM:   1    -0.119696042646E+04    0.23768E-04   -0.94265E-04  5918   0.280E-02    0.135E-02
RMM:   2    -0.119696044617E+04   -0.19712E-04   -0.12153E-04  6429   0.116E-02    0.135E-02
RMM:   3    -0.119696049613E+04   -0.49954E-04   -0.39221E-05  6579   0.542E-03    0.297E-02
RMM:   4    -0.119696044971E+04    0.46411E-04   -0.18952E-05  5341   0.288E-03    0.146E-02
RMM:   5    -0.119696043903E+04    0.10686E-04   -0.53801E-06  4424   0.177E-03    0.672E-03
RMM:   6    -0.119696043962E+04   -0.59046E-06   -0.43487E-06  4364   0.122E-03
   5 F= -.12271575E+04 E0= -.12270889E+04  d E =-.651532E-02
 curvature:  -5.21 expect dE=-0.829E-03 dE for cont linesearch -0.291E-09
 trial: gam= 0.13553 g(F)=  0.159E-03 g(S)=  0.000E+00 ort = 0.256E-06 (trialstep = 0.297E+01)
 search vector abs. value=  0.181E-03
 bond charge predicted
       N       E                     dE             d eps       ncg     rms          rms(c)
RMM:   1    -0.119696123705E+04   -0.79802E-03   -0.14160E-03  5900   0.357E-02    0.196E-02
RMM:   2    -0.119696128372E+04   -0.46670E-04   -0.31605E-04  6468   0.145E-02    0.200E-02
RMM:   3    -0.119696138409E+04   -0.10037E-03   -0.64913E-05  6148   0.677E-03    0.437E-02
RMM:   4    -0.119696126204E+04    0.12205E-03   -0.40170E-05  5499   0.399E-03    0.122E-02
RMM:   5    -0.119696126019E+04    0.18468E-05   -0.93300E-06  4783   0.234E-03    0.114E-02
RMM:   6    -0.119696125860E+04    0.15949E-05   -0.71959E-06  4602   0.154E-03    0.952E-03
RMM:   7    -0.119696125859E+04    0.11729E-07   -0.36794E-06  4218   0.135E-03
   6 F= -.12271580E+04 E0= -.12270894E+04  d E =-.453442E-03
 ZBRENT: can't locate minimum, use default step
 trial-energy change:   -0.000453  1 .order   -0.000452   -0.000472   -0.000431
 step:  11.8674(harm= 34.2127)  dis= 0.00115  next Energy= -1227.160269 (dE=-0.272E-02)
 bond charge predicted
       N       E                     dE             d eps       ncg     rms          rms(c)
RMM:   1    -0.119696326261E+04   -0.20040E-02   -0.13008E-02  5897   0.107E-01    0.572E-02
RMM:   2    -0.119696359334E+04   -0.33073E-03   -0.28317E-03  6449   0.437E-02    0.465E-02
RMM:   3    -0.119696473198E+04   -0.11386E-02   -0.53317E-04  6589   0.202E-02    0.139E-01
RMM:   4    -0.119696351275E+04    0.12192E-02   -0.26795E-04  6254   0.110E-02    0.390E-02
RMM:   5    -0.119696348543E+04    0.27315E-04   -0.86571E-05  5892   0.640E-03    0.344E-02
RMM:   6    -0.119696347453E+04    0.10898E-04   -0.81087E-05  5826   0.442E-03    0.292E-02
RMM:   7    -0.119696347404E+04    0.49008E-06   -0.38485E-05  6060   0.403E-03    0.219E-02
RMM:   8    -0.119696346056E+04    0.13478E-04   -0.32441E-05  5992   0.302E-03    0.144E-02
RMM:   9    -0.119696345337E+04    0.71934E-05   -0.19896E-05  6060   0.275E-03    0.532E-03
RMM:  10    -0.119696345337E+04    0.18044E-08   -0.34192E-06  4155   0.148E-03
   7 F= -.12271591E+04 E0= -.12270906E+04  d E =-.155266E-02
 curvature:  -9.49 expect dE=-0.113E-02 dE for cont linesearch -0.611E-03
 ZBRENT: increasing intervall
 opt :  29.6686  next Energy= -1227.160351 (dE=-0.281E-02)
 bond charge predicted
       N       E                     dE             d eps       ncg     rms          rms(c)
RMM:   1    -0.119696645525E+04   -0.30019E-02   -0.52594E-02  5897   0.215E-01    0.114E-01
RMM:   2    -0.119696795758E+04   -0.15023E-02   -0.12232E-02  6442   0.883E-02    0.969E-02
RMM:   3    -0.119697272966E+04   -0.47721E-02   -0.22828E-03  6571   0.410E-02    0.284E-01
RMM:   4    -0.119696740517E+04    0.53245E-02   -0.13256E-03  6311   0.229E-02    0.636E-02
RMM:   5    -0.119696730360E+04    0.10158E-03   -0.35879E-04  6417   0.129E-02    0.556E-02
RMM:   6    -0.119696739663E+04   -0.93031E-04   -0.27228E-04  6334   0.832E-03    0.621E-02
RMM:   7    -0.119696727653E+04    0.12010E-03   -0.12850E-04  6066   0.743E-03    0.285E-02
RMM:   8    -0.119696732963E+04   -0.53107E-04   -0.16893E-04  6542   0.643E-03    0.355E-02
RMM:   9    -0.119696726068E+04    0.68954E-04   -0.10039E-04  6464   0.515E-03    0.111E-02
RMM:  10    -0.119696725604E+04    0.46425E-05   -0.10891E-05  4932   0.267E-03    0.995E-03
RMM:  11    -0.119696725303E+04    0.30114E-05   -0.12208E-05  4874   0.184E-03    0.624E-03
RMM:  12    -0.119696725194E+04    0.10831E-05   -0.50605E-06  5054   0.164E-03    0.333E-03
RMM:  13    -0.119696725252E+04   -0.57906E-06   -0.21804E-06  3876   0.108E-03
   8 F= -.12271607E+04 E0= -.12270924E+04  d E =-.316529E-02
 curvature: -19.46 expect dE=-0.320E-02 dE for cont linesearch -0.278E-03
 ZBRENT: increasing intervall
 opt :  65.2709  next Energy= -1227.160490 (dE=-0.295E-02)
 bond charge predicted
       N       E                     dE             d eps       ncg     rms          rms(c)
RMM:   1    -0.119696768028E+04   -0.42833E-03   -0.21011E-01  5897   0.430E-01    0.225E-01
RMM:   2    -0.119697322486E+04   -0.55446E-02   -0.48288E-02  6436   0.176E-01    0.176E-01
RMM:   3    -0.119699182161E+04   -0.18597E-01   -0.86018E-03  6556   0.815E-02    0.554E-01
RMM:   4    -0.119697150980E+04    0.20312E-01   -0.43954E-03  6320   0.440E-02    0.129E-01
RMM:   5    -0.119697101808E+04    0.49172E-03   -0.15343E-03  6620   0.250E-02    0.108E-01
RMM:   6    -0.119697146536E+04   -0.44728E-03   -0.10210E-03  6262   0.181E-02    0.109E-01
RMM:   7    -0.119697097900E+04    0.48636E-03   -0.50681E-04  6253   0.129E-02    0.571E-02
RMM:   8    -0.119697094208E+04    0.36918E-04   -0.63415E-04  6635   0.127E-02    0.332E-02
RMM:   9    -0.119697092426E+04    0.17818E-04   -0.13991E-04  6553   0.729E-03    0.287E-02
RMM:  10    -0.119697088274E+04    0.41519E-04   -0.61876E-05  5902   0.448E-03    0.167E-02
RMM:  11    -0.119697087884E+04    0.39002E-05   -0.21104E-05  5821   0.283E-03    0.133E-02
RMM:  12    -0.119697087260E+04    0.62459E-05   -0.18988E-05  5879   0.288E-03    0.700E-03
RMM:  13    -0.119697087478E+04   -0.21886E-05   -0.94393E-06  5222   0.200E-03    0.845E-03
RMM:  14    -0.119697087132E+04    0.34611E-05   -0.46946E-06  4379   0.137E-03    0.375E-03
RMM:  15    -0.119697087133E+04   -0.10972E-07   -0.13225E-06  3615   0.904E-04
   9 F= -.12271600E+04 E0= -.12270920E+04  d E =-.242968E-02
 curvature:  15.38 expect dE= 0.111E-01 dE for cont linesearch  0.818E-03
 ZBRENT: bracketing found
 ZBRENT: interpolating
 opt :  41.8278  next Energy= -1227.161020 (dE=-0.347E-02)
 bond charge predicted
       N       E                     dE             d eps       ncg     rms          rms(c)
RMM:   1    -0.119696775730E+04    0.31140E-02   -0.91013E-02  5897   0.283E-01    0.146E-01
RMM:   2    -0.119697017109E+04   -0.24138E-02   -0.20814E-02  6440   0.116E-01    0.117E-01
RMM:   3    -0.119697815765E+04   -0.79866E-02   -0.37295E-03  6557   0.535E-02    0.366E-01
RMM:   4    -0.119696939851E+04    0.87591E-02   -0.19578E-03  6332   0.291E-02    0.849E-02
RMM:   5    -0.119696922121E+04    0.17730E-03   -0.63632E-04  6581   0.165E-02    0.728E-02
RMM:   6    -0.119696947440E+04   -0.25319E-03   -0.48989E-04  6345   0.112E-02    0.861E-02
RMM:   7    -0.119696919559E+04    0.27882E-03   -0.26935E-04  6232   0.985E-03    0.370E-02
RMM:   8    -0.119696929333E+04   -0.97741E-04   -0.35723E-04  6648   0.907E-03    0.451E-02
RMM:   9    -0.119696918242E+04    0.11091E-03   -0.14191E-04  6540   0.627E-03    0.148E-02
RMM:  10    -0.119696917197E+04    0.10450E-04   -0.27625E-05  5641   0.343E-03    0.115E-02
RMM:  11    -0.119696917036E+04    0.16128E-05   -0.13605E-05  5213   0.214E-03    0.898E-03
RMM:  12    -0.119696916847E+04    0.18836E-05   -0.95825E-06  5486   0.209E-03    0.529E-03
RMM:  13    -0.119696916857E+04   -0.94471E-07   -0.38976E-06  4333   0.140E-03
  10 F= -.12271611E+04 E0= -.12270929E+04  d E =-.359135E-02
 curvature:  -5.81 expect dE=-0.142E-02 dE for cont linesearch -0.229E-05
 trial: gam= 1.45142 g(F)=  0.244E-03 g(S)=  0.000E+00 ort = 0.845E-05 (trialstep = 0.299E+01)
 search vector abs. value=  0.649E-03
 bond charge predicted
       N       E                     dE             d eps       ncg     rms          rms(c)
RMM:   1    -0.119697078462E+04   -0.16161E-02   -0.52594E-03  5890   0.688E-02    0.348E-02
RMM:   2    -0.119697091811E+04   -0.13349E-03   -0.12837E-03  6482   0.281E-02    0.246E-02
RMM:   3    -0.119697101380E+04   -0.95693E-04   -0.18814E-04  6486   0.128E-02    0.494E-02
RMM:   4    -0.119697091337E+04    0.10043E-03   -0.69993E-05  5946   0.617E-03    0.304E-02
RMM:   5    -0.119697086817E+04    0.45194E-04   -0.35861E-05  5619   0.361E-03    0.177E-02
RMM:   6    -0.119697087430E+04   -0.61274E-05   -0.19896E-05  5370   0.238E-03    0.189E-02
RMM:   7    -0.119697086541E+04    0.88912E-05   -0.17831E-05  6084   0.275E-03    0.787E-03
RMM:   8    -0.119697086636E+04   -0.94784E-06   -0.11176E-05  5216   0.190E-03    0.903E-03
RMM:   9    -0.119697086108E+04    0.52778E-05   -0.65999E-06  4596   0.142E-03    0.326E-03
RMM:  10    -0.119697086090E+04    0.17932E-06   -0.11771E-06  3567   0.875E-04
  11 F= -.12271618E+04 E0= -.12270936E+04  d E =-.701918E-03
 ZBRENT: can't locate minimum, use default step
 trial-energy change:   -0.000702  1 .order   -0.000705   -0.000766   -0.000644
 step:  11.9621(harm= 18.7657)  dis= 0.00177  next Energy= -1227.163540 (dE=-0.240E-02)
 bond charge predicted
       N       E                     dE             d eps       ncg     rms          rms(c)
RMM:   1    -0.119697470820E+04   -0.38471E-02   -0.47280E-02  5889   0.207E-01    0.109E-01
RMM:   2    -0.119697596349E+04   -0.12553E-02   -0.11571E-02  6440   0.846E-02    0.777E-02
RMM:   3    -0.119697881336E+04   -0.28499E-02   -0.18679E-03  6507   0.389E-02    0.226E-01
RMM:   4    -0.119697565026E+04    0.31631E-02   -0.83227E-04  6348   0.197E-02    0.677E-02
RMM:   5    -0.119697546143E+04    0.18884E-03   -0.34593E-04  6632   0.113E-02    0.487E-02
RMM:   6    -0.119697563594E+04   -0.17451E-03   -0.27093E-04  6319   0.827E-03    0.615E-02
RMM:   7    -0.119697546514E+04    0.17080E-03   -0.17070E-04  6265   0.730E-03    0.223E-02
RMM:   8    -0.119697544825E+04    0.16891E-04   -0.90193E-05  6371   0.520E-03    0.177E-02
RMM:   9    -0.119697543533E+04    0.12918E-04   -0.36244E-05  6064   0.329E-03    0.106E-02
RMM:  10    -0.119697543141E+04    0.39220E-05   -0.85219E-06  4815   0.197E-03    0.784E-03
RMM:  11    -0.119697543001E+04    0.14042E-05   -0.27498E-06  4045   0.126E-03    0.607E-03
RMM:  12    -0.119697542877E+04    0.12403E-05   -0.38755E-06  4445   0.136E-03    0.311E-03
RMM:  13    -0.119697542852E+04    0.24862E-06   -0.18558E-06  3556   0.110E-03
  12 F= -.12271634E+04 E0= -.12270952E+04  d E =-.230158E-02
 curvature: -19.36 expect dE=-0.379E-02 dE for cont linesearch -0.486E-03
 ZBRENT: increasing intervall
 opt :  29.9052  next Energy= -1227.164154 (dE=-0.302E-02)
 bond charge predicted
       N       E                     dE             d eps       ncg     rms          rms(c)
RMM:   1    -0.119697989299E+04   -0.44642E-02   -0.18919E-01  5889   0.413E-01    0.215E-01
RMM:   2    -0.119698489367E+04   -0.50007E-02   -0.46343E-02  6446   0.169E-01    0.153E-01
RMM:   3    -0.119699488652E+04   -0.99928E-02   -0.73229E-03  6508   0.775E-02    0.428E-01
RMM:   4    -0.119698375388E+04    0.11133E-01   -0.31587E-03  6377   0.388E-02    0.140E-01
RMM:   5    -0.119698293033E+04    0.82355E-03   -0.13655E-03  6776   0.223E-02    0.990E-02
RMM:   6    -0.119698348119E+04   -0.55086E-03   -0.93125E-04  6395   0.154E-02    0.123E-01
RMM:   7    -0.119698292127E+04    0.55992E-03   -0.65849E-04  6317   0.155E-02    0.428E-02
RMM:   8    -0.119698285480E+04    0.66473E-04   -0.38627E-04  6558   0.108E-02    0.313E-02
RMM:   9    -0.119698282313E+04    0.31666E-04   -0.12650E-04  6567   0.656E-03    0.220E-02
RMM:  10    -0.119698280329E+04    0.19845E-04   -0.35012E-05  5795   0.380E-03    0.140E-02
RMM:  11    -0.119698280047E+04    0.28169E-05   -0.13563E-05  5702   0.272E-03    0.121E-02
RMM:  12    -0.119698279618E+04    0.42945E-05   -0.12748E-05  5785   0.243E-03    0.657E-03
RMM:  13    -0.119698279666E+04   -0.48010E-06   -0.80237E-06  5600   0.200E-03
  13 F= -.12271649E+04 E0= -.12270965E+04  d E =-.374884E-02
 curvature: -28.55 expect dE=-0.132E-01 dE for cont linesearch -0.423E-05
 trial: gam= 1.90307 g(F)=  0.461E-03 g(S)=  0.000E+00 ort =-0.981E-05 (trialstep = 0.196E+01)
 search vector abs. value=  0.278E-02
 bond charge predicted
       N       E                     dE             d eps       ncg     rms          rms(c)
RMM:   1    -0.119698475603E+04   -0.19598E-02   -0.95727E-03  5888   0.925E-02    0.505E-02
RMM:   2    -0.119698500336E+04   -0.24734E-03   -0.22901E-03  6530   0.378E-02    0.345E-02
RMM:   3    -0.119698568468E+04   -0.68132E-03   -0.39239E-04  6666   0.173E-02    0.108E-01
RMM:   4    -0.119698495654E+04    0.72815E-03   -0.18673E-04  6169   0.878E-03    0.304E-02
RMM:   5    -0.119698491494E+04    0.41595E-04   -0.81655E-05  5889   0.522E-03    0.230E-02
RMM:   6    -0.119698491525E+04   -0.30520E-06   -0.35325E-05  5657   0.334E-03    0.218E-02
RMM:   7    -0.119698490594E+04    0.93092E-05   -0.21018E-05  5928   0.325E-03    0.923E-03
RMM:   8    -0.119698490217E+04    0.37680E-05   -0.13725E-05  5886   0.241E-03    0.502E-03
RMM:   9    -0.119698490160E+04    0.57489E-06   -0.34778E-06  4193   0.135E-03
  14 F= -.12271657E+04 E0= -.12270973E+04  d E =-.785760E-03
 ZBRENT: can't locate minimum, use default step
 trial-energy change:   -0.000786  1 .order   -0.000787   -0.000866   -0.000707
 step:   7.8365(harm= 10.6467)  dis= 0.00284  next Energy= -1227.167240 (dE=-0.235E-02)
 bond charge predicted
       N       E                     dE             d eps       ncg     rms          rms(c)
RMM:   1    -0.119698925087E+04   -0.43487E-02   -0.85801E-02  5888   0.277E-01    0.149E-01
RMM:   2    -0.119699142330E+04   -0.21724E-02   -0.20628E-02  6490   0.113E-01    0.994E-02
RMM:   3    -0.119699530548E+04   -0.38822E-02   -0.33324E-03  6593   0.513E-02    0.268E-01
RMM:   4    -0.119699119114E+04    0.41143E-02   -0.13618E-03  6350   0.251E-02    0.102E-01
RMM:   5    -0.119699062712E+04    0.56402E-03   -0.74093E-04  6733   0.151E-02    0.625E-02
RMM:   6    -0.119699073461E+04   -0.10750E-03   -0.27919E-04  6232   0.108E-02    0.529E-02
RMM:   7    -0.119699068188E+04    0.52731E-04   -0.20910E-04  6228   0.806E-03    0.395E-02
RMM:   8    -0.119699058673E+04    0.95148E-04   -0.12137E-04  6313   0.649E-03    0.118E-02
RMM:   9    -0.119699058762E+04   -0.88610E-06   -0.33507E-05  6269   0.353E-03    0.125E-02
RMM:  10    -0.119699058203E+04    0.55907E-05   -0.87065E-06  4688   0.198E-03    0.849E-03
RMM:  11    -0.119699058083E+04    0.11994E-05   -0.32899E-06  4132   0.134E-03    0.706E-03
RMM:  12    -0.119699057922E+04    0.16083E-05   -0.32107E-06  4167   0.131E-03    0.420E-03
RMM:  13    -0.119699057871E+04    0.51325E-06   -0.21269E-06  3557   0.123E-03
  15 F= -.12271674E+04 E0= -.12270988E+04  d E =-.250955E-02
 curvature: -29.91 expect dE=-0.103E-01 dE for cont linesearch -0.381E-03
 ZBRENT: increasing intervall
 opt :  19.5912  next Energy= -1227.167572 (dE=-0.269E-02)
 bond charge predicted
       N       E                     dE             d eps       ncg     rms          rms(c)
RMM:   1    -0.119699429019E+04   -0.37110E-02   -0.34393E-01  5888   0.554E-01    0.296E-01
RMM:   2    -0.119700287971E+04   -0.85895E-02   -0.82530E-02  6499   0.226E-01    0.194E-01
RMM:   3    -0.119701193025E+04   -0.90505E-02   -0.12999E-02  6588   0.102E-01    0.438E-01
RMM:   4    -0.119700326883E+04    0.86614E-02   -0.49633E-03  6422   0.490E-02    0.243E-01
RMM:   5    -0.119699983930E+04    0.34295E-02   -0.30297E-03  6684   0.297E-02    0.127E-01
RMM:   6    -0.119700079023E+04   -0.95093E-03   -0.15628E-03  6481   0.209E-02    0.158E-01
RMM:   7    -0.119699981934E+04    0.97088E-03   -0.10022E-03  6251   0.188E-02    0.586E-02
RMM:   8    -0.119699969093E+04    0.12842E-03   -0.57913E-04  6452   0.144E-02    0.299E-02
RMM:   9    -0.119699967581E+04    0.15119E-04   -0.14916E-04  6888   0.782E-03    0.260E-02
RMM:  10    -0.119699964935E+04    0.26459E-04   -0.38197E-05  5873   0.410E-03    0.170E-02
RMM:  11    -0.119699964227E+04    0.70749E-05   -0.16350E-05  5961   0.306E-03    0.125E-02
RMM:  12    -0.119699964008E+04    0.21984E-05   -0.13735E-05  5869   0.261E-03    0.928E-03
RMM:  13    -0.119699963701E+04    0.30608E-05   -0.76089E-06  5717   0.224E-03    0.373E-03
RMM:  14    -0.119699963768E+04   -0.66454E-06   -0.26081E-06  3826   0.138E-03
  16 F= -.12271686E+04 E0= -.12270995E+04  d E =-.368070E-02
 curvature: -13.86 expect dE=-0.739E-02 dE for cont linesearch -0.837E-05
 trial: gam= 0.60610 g(F)=  0.533E-03 g(S)=  0.000E+00 ort = 0.409E-04 (trialstep = 0.549E+01)
 search vector abs. value=  0.160E-02
 bond charge predicted
       N       E                     dE             d eps       ncg     rms          rms(c)
RMM:   1    -0.119700362558E+04   -0.39886E-02   -0.45229E-02  5894   0.195E-01    0.106E-01
RMM:   2    -0.119700571352E+04   -0.20879E-02   -0.99106E-03  6458   0.807E-02    0.143E-01
RMM:   3    -0.119700653525E+04   -0.82173E-03   -0.21448E-03  6890   0.377E-02    0.181E-01
RMM:   4    -0.119700443361E+04    0.21016E-02   -0.14607E-03  6273   0.214E-02    0.496E-02
RMM:   5    -0.119700433919E+04    0.94415E-04   -0.25472E-04  6239   0.117E-02    0.440E-02
RMM:   6    -0.119700444728E+04   -0.10809E-03   -0.19248E-04  6333   0.775E-03    0.526E-02
RMM:   7    -0.119700432376E+04    0.12352E-03   -0.11180E-04  6110   0.623E-03    0.229E-02
RMM:   8    -0.119700433584E+04   -0.12079E-04   -0.99546E-05  6427   0.565E-03    0.193E-02
RMM:   9    -0.119700431713E+04    0.18717E-04   -0.24153E-05  5817   0.337E-03    0.939E-03
RMM:  10    -0.119700431390E+04    0.32280E-05   -0.58988E-06  4639   0.189E-03    0.806E-03
RMM:  11    -0.119700431166E+04    0.22399E-05   -0.11502E-05  5538   0.186E-03    0.451E-03
RMM:  12    -0.119700431046E+04    0.11959E-05   -0.39596E-06  4667   0.138E-03    0.275E-03
RMM:  13    -0.119700431083E+04   -0.37163E-06   -0.15960E-06  3697   0.895E-04
  17 F= -.12271710E+04 E0= -.12271020E+04  d E =-.248144E-02
 trial-energy change:   -0.002481  1 .order   -0.002476   -0.003062   -0.001890
 step:  13.7412(harm= 14.3250)  dis= 0.00412  next Energy= -1227.172488 (dE=-0.392E-02)
 bond charge predicted
       N       E                     dE             d eps       ncg     rms          rms(c)
RMM:   1    -0.119700746729E+04   -0.31568E-02   -0.10236E-01  5896   0.294E-01    0.158E-01
RMM:   2    -0.119701212614E+04   -0.46588E-02   -0.22542E-02  6467   0.121E-01    0.212E-01
RMM:   3    -0.119701415493E+04   -0.20288E-02   -0.48284E-03  6899   0.565E-02    0.275E-01
RMM:   4    -0.119700929301E+04    0.48619E-02   -0.33182E-03  6285   0.320E-02    0.747E-02
RMM:   5    -0.119700908577E+04    0.20724E-03   -0.57949E-04  6359   0.174E-02    0.664E-02
RMM:   6    -0.119700933296E+04   -0.24719E-03   -0.42907E-04  6367   0.115E-02    0.795E-02
RMM:   7    -0.119700905268E+04    0.28028E-03   -0.25065E-04  6165   0.921E-03    0.346E-02
RMM:   8    -0.119700904956E+04    0.31149E-05   -0.20494E-04  6450   0.842E-03    0.177E-02
RMM:   9    -0.119700903868E+04    0.10889E-04   -0.27537E-05  6017   0.442E-03    0.131E-02
RMM:  10    -0.119700903475E+04    0.39280E-05   -0.20460E-05  5583   0.298E-03    0.120E-02
RMM:  11    -0.119700902963E+04    0.51211E-05   -0.13583E-05  5539   0.219E-03    0.702E-03
RMM:  12    -0.119700902670E+04    0.29223E-05   -0.85196E-06  5220   0.185E-03    0.337E-03
RMM:  13    -0.119700902691E+04   -0.20956E-06   -0.24310E-06  3953   0.114E-03
  18 F= -.12271725E+04 E0= -.12271034E+04  d E =-.390835E-02
 curvature: -20.47 expect dE=-0.413E-02 dE for cont linesearch -0.893E-06
 trial: gam= 0.30978 g(F)=  0.202E-03 g(S)=  0.000E+00 ort =-0.836E-05 (trialstep = 0.714E+01)
 search vector abs. value=  0.350E-03
 bond charge predicted
       N       E                     dE             d eps       ncg     rms          rms(c)
RMM:   1    -0.119701105974E+04   -0.20330E-02   -0.17101E-02  5965   0.109E-01    0.646E-02
RMM:   2    -0.119701164693E+04   -0.58720E-03   -0.36428E-03  6344   0.460E-02    0.715E-02
RMM:   3    -0.119701265800E+04   -0.10111E-02   -0.11249E-03  6959   0.231E-02    0.140E-01
RMM:   4    -0.119701137815E+04    0.12798E-02   -0.45291E-04  6108   0.125E-02    0.370E-02
RMM:   5    -0.119701133687E+04    0.41278E-04   -0.84267E-05  5814   0.703E-03    0.320E-02
RMM:   6    -0.119701132415E+04    0.12722E-04   -0.50061E-05  5780   0.424E-03    0.267E-02
RMM:   7    -0.119701131132E+04    0.12830E-04   -0.30991E-05  5677   0.321E-03    0.189E-02
RMM:   8    -0.119701132020E+04   -0.88758E-05   -0.26419E-05  6079   0.295E-03    0.165E-02
RMM:   9    -0.119701130979E+04    0.10409E-04   -0.17336E-05  5808   0.241E-03    0.839E-03
RMM:  10    -0.119701130755E+04    0.22361E-05   -0.65836E-06  4758   0.165E-03    0.688E-03
RMM:  11    -0.119701130518E+04    0.23725E-05   -0.47814E-06  4554   0.131E-03    0.353E-03
RMM:  12    -0.119701130444E+04    0.73960E-06   -0.13104E-06  3626   0.906E-04
  19 F= -.12271736E+04 E0= -.12271047E+04  d E =-.115943E-02
 ZBRENT: can't locate minimum, use default step
 trial-energy change:   -0.001159  1 .order   -0.001169   -0.001422   -0.000915
 step:  28.5467(harm= 20.0272)  dis= 0.00513  next Energy= -1227.174869 (dE=-0.239E-02)
 bond charge predicted
       N       E                     dE             d eps       ncg     rms          rms(c)
RMM:   1    -0.119701374112E+04   -0.24359E-02   -0.15407E-01  5964   0.328E-01    0.191E-01
RMM:   2    -0.119701866802E+04   -0.49269E-02   -0.32078E-02  6341   0.138E-01    0.203E-01
RMM:   3    -0.119702797217E+04   -0.93042E-02   -0.10056E-02  6970   0.691E-02    0.415E-01
RMM:   4    -0.119701643019E+04    0.11542E-01   -0.36117E-03  6202   0.368E-02    0.969E-02
RMM:   5    -0.119701615913E+04    0.27107E-03   -0.70047E-04  6359   0.204E-02    0.856E-02
RMM:   6    -0.119701628669E+04   -0.12757E-03   -0.45013E-04  6440   0.124E-02    0.893E-02
RMM:   7    -0.119701607170E+04    0.21499E-03   -0.31376E-04  6191   0.947E-03    0.575E-02
RMM:   8    -0.119701614955E+04   -0.77849E-04   -0.19560E-04  6333   0.792E-03    0.492E-02
RMM:   9    -0.119701610253E+04    0.47022E-04   -0.15161E-04  6457   0.688E-03    0.286E-02
RMM:  10    -0.119701608760E+04    0.14928E-04   -0.90642E-05  6303   0.525E-03    0.245E-02
RMM:  11    -0.119701606395E+04    0.23651E-04   -0.79751E-05  6548   0.446E-03    0.124E-02
RMM:  12    -0.119701605406E+04    0.98955E-05   -0.16767E-05  5399   0.290E-03    0.842E-03
RMM:  13    -0.119701605180E+04    0.22566E-05   -0.18180E-05  5631   0.231E-03    0.547E-03
RMM:  14    -0.119701605250E+04   -0.69880E-06   -0.41622E-06  4401   0.140E-03
  20 F= -.12271750E+04 E0= -.12271067E+04  d E =-.256292E-02
 curvature:  -9.92 expect dE=-0.239E-02 dE for cont linesearch -0.353E-04
 ZBRENT: interpolating
 opt :  23.9256  next Energy= -1227.175119 (dE=-0.264E-02)
 bond charge predicted
       N       E                     dE             d eps       ncg     rms          rms(c)
RMM:   1    -0.119701525995E+04    0.79185E-03   -0.71384E-03  5963   0.706E-02    0.393E-02
RMM:   2    -0.119701543584E+04   -0.17589E-03   -0.14434E-03  6350   0.295E-02    0.336E-02
RMM:   3    -0.119701610906E+04   -0.67322E-03   -0.45268E-04  6879   0.148E-02    0.104E-01
RMM:   4    -0.119701539476E+04    0.71430E-03   -0.15732E-04  5973   0.785E-03    0.248E-02
RMM:   5    -0.119701538134E+04    0.13411E-04   -0.35170E-05  5516   0.441E-03    0.215E-02
RMM:   6    -0.119701537796E+04    0.33888E-05   -0.18796E-05  5469   0.265E-03    0.188E-02
RMM:   7    -0.119701537450E+04    0.34525E-05   -0.14496E-05  5069   0.209E-03    0.138E-02
RMM:   8    -0.119701538320E+04   -0.86993E-05   -0.12753E-05  5487   0.191E-03    0.128E-02
RMM:   9    -0.119701537982E+04    0.33839E-05   -0.98600E-06  5223   0.172E-03    0.604E-03
RMM:  10    -0.119701538040E+04   -0.57652E-06   -0.40015E-06  4422   0.127E-03
  21 F= -.12271751E+04 E0= -.12271066E+04  d E =-.261189E-02
 curvature: -22.94 expect dE=-0.382E-02 dE for cont linesearch -0.161E-04
 trial: gam= 0.81072 g(F)=  0.167E-03 g(S)=  0.000E+00 ort = 0.157E-04 (trialstep = 0.871E+01)
 search vector abs. value=  0.422E-03
 bond charge predicted
       N       E                     dE             d eps       ncg     rms          rms(c)
RMM:   1    -0.119701710660E+04   -0.17268E-02   -0.31047E-02  5966   0.148E-01    0.827E-02
RMM:   2    -0.119701761637E+04   -0.50977E-03   -0.60205E-03  6324   0.617E-02    0.428E-02
RMM:   3    -0.119702021551E+04   -0.25991E-02   -0.13717E-03  6717   0.303E-02    0.197E-01
RMM:   4    -0.119701768492E+04    0.25306E-02   -0.50595E-04  6532   0.164E-02    0.512E-02
RMM:   5    -0.119701760848E+04    0.76442E-04   -0.21078E-04  6147   0.893E-03    0.415E-02
RMM:   6    -0.119701760831E+04    0.16270E-06   -0.10106E-04  6123   0.568E-03    0.393E-02
RMM:   7    -0.119701757448E+04    0.33832E-04   -0.93149E-05  6034   0.482E-03    0.281E-02
RMM:   8    -0.119701759188E+04   -0.17393E-04   -0.45797E-05  6138   0.362E-03    0.272E-02
RMM:   9    -0.119701757475E+04    0.17127E-04   -0.34273E-05  5993   0.316E-03    0.159E-02
RMM:  10    -0.119701757204E+04    0.27124E-05   -0.20596E-05  5900   0.277E-03    0.118E-02
RMM:  11    -0.119701756777E+04    0.42690E-05   -0.16445E-05  5892   0.234E-03    0.845E-03
RMM:  12    -0.119701756493E+04    0.28379E-05   -0.47283E-06  4482   0.149E-03    0.648E-03
RMM:  13    -0.119701756323E+04    0.17025E-05   -0.34555E-06  4172   0.114E-03    0.455E-03
RMM:  14    -0.119701756306E+04    0.16441E-06   -0.21748E-06  3944   0.901E-04
  22 F= -.12271761E+04 E0= -.12271079E+04  d E =-.103744E-02
 trial-energy change:   -0.001037  1 .order   -0.001042   -0.001562   -0.000522
 step:  13.2466(harm= 13.0749)  dis= 0.00263  next Energy= -1227.176259 (dE=-0.117E-02)
 bond charge predicted
       N       E                     dE             d eps       ncg     rms          rms(c)
RMM:   1    -0.119701816179E+04   -0.59856E-03   -0.85169E-03  5965   0.771E-02    0.453E-02
RMM:   2    -0.119701833259E+04   -0.17080E-03   -0.17195E-03  6328   0.325E-02    0.311E-02
RMM:   3    -0.119701947372E+04   -0.11411E-02   -0.56347E-04  6794   0.165E-02    0.131E-01
RMM:   4    -0.119701831654E+04    0.11572E-02   -0.18564E-04  6036   0.895E-03    0.258E-02
RMM:   5    -0.119701830097E+04    0.15575E-04   -0.55201E-05  5739   0.521E-03    0.220E-02
RMM:   6    -0.119701829680E+04    0.41664E-05   -0.28451E-05  5661   0.325E-03    0.191E-02
RMM:   7    -0.119701828890E+04    0.78969E-05   -0.24288E-05  5476   0.263E-03    0.139E-02
RMM:   8    -0.119701829282E+04   -0.39185E-05   -0.12245E-05  5342   0.192E-03    0.138E-02
RMM:   9    -0.119701828726E+04    0.55662E-05   -0.86132E-06  5185   0.171E-03    0.747E-03
RMM:  10    -0.119701828594E+04    0.13162E-05   -0.44686E-06  4502   0.138E-03    0.572E-03
RMM:  11    -0.119701828440E+04    0.15379E-05   -0.45267E-06  4467   0.122E-03    0.362E-03
RMM:  12    -0.119701828386E+04    0.53734E-06   -0.87828E-07  3464   0.757E-04
  23 F= -.12271762E+04 E0= -.12271081E+04  d E =-.116244E-02
 curvature: -15.37 expect dE=-0.553E-03 dE for cont linesearch -0.335E-06
 trial: gam= 0.11556 g(F)=  0.360E-04 g(S)=  0.000E+00 ort =-0.303E-05 (trialstep = 0.961E+01)
 search vector abs. value=  0.409E-04
 bond charge predicted
       N       E                     dE             d eps       ncg     rms          rms(c)
RMM:   1    -0.119701854397E+04   -0.25957E-03   -0.39358E-03  5934   0.567E-02    0.296E-02
RMM:   2    -0.119701878009E+04   -0.23612E-03   -0.50651E-04  6248   0.233E-02    0.556E-02
RMM:   3    -0.119701867084E+04    0.10926E-03   -0.16772E-04  6901   0.112E-02    0.379E-02
RMM:   4    -0.119701860296E+04    0.67881E-04   -0.44507E-05  5676   0.549E-03    0.207E-02
RMM:   5    -0.119701859328E+04    0.96745E-05   -0.12545E-05  5232   0.313E-03    0.162E-02
RMM:   6    -0.119701859257E+04    0.71539E-06   -0.60281E-06  4875   0.193E-03
  24 F= -.12271765E+04 E0= -.12271082E+04  d E =-.235900E-03
 trial-energy change:   -0.000236  1 .order   -0.000236   -0.000343   -0.000129
 step:  15.3845(harm= 15.3845)  dis= 0.00093  next Energy= -1227.176523 (dE=-0.274E-03)
 bond charge predicted
       N       E                     dE             d eps       ncg     rms          rms(c)
RMM:   1    -0.119701865800E+04   -0.64719E-04   -0.13335E-03  5936   0.336E-02    0.218E-02
RMM:   2    -0.119701894600E+04   -0.28800E-03   -0.25602E-04  6208   0.143E-02    0.655E-02
RMM:   3    -0.119701879635E+04    0.14965E-03   -0.89527E-05  6150   0.757E-03    0.466E-02
RMM:   4    -0.119701866947E+04    0.12688E-03   -0.44426E-05  5505   0.457E-03    0.175E-02
RMM:   5    -0.119701866690E+04    0.25709E-05   -0.75597E-06  4990   0.254E-03    0.149E-02
RMM:   6    -0.119701866791E+04   -0.10053E-05   -0.42700E-06  4277   0.155E-03    0.143E-02
RMM:   7    -0.119701867856E+04   -0.10653E-04   -0.16972E-05  5728   0.187E-03    0.164E-02
RMM:   8    -0.119701866711E+04    0.11456E-04   -0.14474E-05  5569   0.187E-03    0.477E-03
RMM:   9    -0.119701866613E+04    0.97093E-06   -0.27930E-06  4127   0.108E-03
  25 F= -.12271765E+04 E0= -.12271082E+04  d E =-.266196E-03
 curvature:  -8.83 expect dE=-0.165E-03 dE for cont linesearch -0.615E-06
 trial: gam= 0.53840 g(F)=  0.187E-04 g(S)=  0.000E+00 ort =-0.169E-05 (trialstep = 0.108E+02)
 search vector abs. value=  0.287E-04
 bond charge predicted
       N       E                     dE             d eps       ncg     rms          rms(c)
RMM:   1    -0.119701914064E+04   -0.47353E-03   -0.28232E-03  5909   0.480E-02    0.289E-02
RMM:   2    -0.119701918075E+04   -0.40115E-04   -0.33945E-04  6299   0.189E-02    0.205E-02
RMM:   3    -0.119701935494E+04   -0.17419E-03   -0.15232E-04  6484   0.945E-03    0.531E-02
RMM:   4    -0.119701922175E+04    0.13319E-03   -0.53615E-05  5774   0.513E-03    0.299E-02
RMM:   5    -0.119701917637E+04    0.45387E-04   -0.27534E-05  5451   0.328E-03    0.142E-02
RMM:   6    -0.119701917081E+04    0.55539E-05   -0.72102E-06  4728   0.198E-03    0.108E-02
RMM:   7    -0.119701917422E+04   -0.34111E-05   -0.81837E-06  4976   0.159E-03    0.110E-02
RMM:   8    -0.119701917306E+04    0.11597E-05   -0.10610E-05  5370   0.169E-03    0.800E-03
RMM:   9    -0.119701917030E+04    0.27635E-05   -0.41881E-06  4315   0.120E-03    0.340E-03
RMM:  10    -0.119701916984E+04    0.45713E-06   -0.97445E-07  3496   0.778E-04
  26 F= -.12271767E+04 E0= -.12271083E+04  d E =-.170007E-03
 ZBRENT: can't locate minimum, use default step
 trial-energy change:   -0.000170  1 .order   -0.000169   -0.000191   -0.000147
 step:  43.0727(harm= 46.5433)  dis= 0.00509  next Energy= -1227.176928 (dE=-0.413E-03)
 bond charge predicted
       N       E                     dE             d eps       ncg     rms          rms(c)
RMM:   1    -0.119702018528E+04   -0.10150E-02   -0.25254E-02  5908   0.144E-01    0.864E-02
RMM:   2    -0.119702056736E+04   -0.38208E-03   -0.32075E-03  6295   0.568E-02    0.624E-02
RMM:   3    -0.119702185268E+04   -0.12853E-02   -0.13254E-03  6703   0.283E-02    0.147E-01
RMM:   4    -0.119702098844E+04    0.86423E-03   -0.46428E-04  6479   0.152E-02    0.955E-02
RMM:   5    -0.119702050950E+04    0.47894E-03   -0.26236E-04  6148   0.961E-03    0.434E-02
RMM:   6    -0.119702045345E+04    0.56055E-04   -0.76232E-05  5780   0.582E-03    0.326E-02
RMM:   7    -0.119702048858E+04   -0.35136E-04   -0.80018E-05  6092   0.472E-03    0.341E-02
RMM:   8    -0.119702047134E+04    0.17239E-04   -0.97532E-05  6624   0.502E-03    0.228E-02
RMM:   9    -0.119702044967E+04    0.21676E-04   -0.34926E-05  5964   0.341E-03    0.101E-02
RMM:  10    -0.119702044622E+04    0.34428E-05   -0.10189E-05  5016   0.214E-03    0.695E-03
RMM:  11    -0.119702044497E+04    0.12573E-05   -0.50048E-06  4479   0.150E-03    0.462E-03
RMM:  12    -0.119702044616E+04   -0.11886E-05   -0.45948E-06  4401   0.124E-03    0.617E-03
RMM:  13    -0.119702044429E+04    0.18653E-05   -0.24244E-06  3904   0.984E-04    0.244E-03
RMM:  14    -0.119702044399E+04    0.30336E-06   -0.73171E-07  3462   0.684E-04
  27 F= -.12271770E+04 E0= -.12271084E+04  d E =-.442890E-03
 curvature: -37.29 expect dE=-0.403E-02 dE for cont linesearch -0.536E-05
 trial: gam= 5.26228 g(F)=  0.108E-03 g(S)=  0.000E+00 ort = 0.203E-05 (trialstep = 0.535E+00)
 search vector abs. value=  0.924E-03
 bond charge predicted
       N       E                     dE             d eps       ncg     rms          rms(c)
RMM:   1    -0.119702060068E+04   -0.15639E-03   -0.20580E-04  5889   0.125E-02    0.851E-03
RMM:   2    -0.119702060692E+04   -0.62345E-05   -0.29446E-05  5892   0.497E-03    0.879E-03
RMM:   3    -0.119702062870E+04   -0.21782E-04   -0.12622E-05  5298   0.261E-03    0.196E-02
RMM:   4    -0.119702060617E+04    0.22535E-04   -0.69211E-06  4700   0.166E-03    0.776E-03
RMM:   5    -0.119702060331E+04    0.28536E-05   -0.32455E-06  4141   0.112E-03    0.350E-03
RMM:   6    -0.119702060268E+04    0.63438E-06   -0.80652E-07  3477   0.695E-04
  28 F= -.12271770E+04 E0= -.12271085E+04  d E =-.650867E-04
 ZBRENT: can't locate minimum, use default step
 trial-energy change:   -0.000065  1 .order   -0.000065   -0.000064   -0.000066
 step:   2.1399(harm=  2.1399)  dis= 0.00168  next Energy= -1227.177229 (dE=-0.271E-03)
 bond charge predicted
       N       E                     dE             d eps       ncg     rms          rms(c)
RMM:   1    -0.119702106922E+04   -0.46590E-03   -0.18416E-03  5905   0.373E-02    0.240E-02
RMM:   2    -0.119702110077E+04   -0.31555E-04   -0.22830E-04  6310   0.146E-02    0.195E-02
RMM:   3    -0.119702128513E+04   -0.18436E-03   -0.10439E-04  6177   0.747E-03    0.545E-02
RMM:   4    -0.119702111417E+04    0.17096E-03   -0.44564E-05  5676   0.433E-03    0.223E-02
RMM:   5    -0.119702109127E+04    0.22901E-04   -0.19749E-05  5308   0.282E-03    0.115E-02
RMM:   6    -0.119702108693E+04    0.43372E-05   -0.53760E-06  4480   0.170E-03    0.831E-03
RMM:   7    -0.119702108982E+04   -0.28872E-05   -0.73892E-06  4808   0.142E-03    0.903E-03
RMM:   8    -0.119702108799E+04    0.18298E-05   -0.63889E-06  4693   0.136E-03    0.622E-03
RMM:   9    -0.119702108624E+04    0.17522E-05   -0.21467E-06  3822   0.928E-04    0.247E-03
RMM:  10    -0.119702108606E+04    0.18130E-06   -0.49611E-07  3290   0.611E-04
  29 F= -.12271772E+04 E0= -.12271087E+04  d E =-.267678E-03
 curvature: -12.66 expect dE=-0.170E-02 dE for cont linesearch -0.218E-03
 ZBRENT: increasing intervall
 opt :   5.3498  next Energy= -1227.177642 (dE=-0.684E-03)
 bond charge predicted
       N       E                     dE             d eps       ncg     rms          rms(c)
RMM:   1    -0.119702202626E+04   -0.94002E-03   -0.73727E-03  5907   0.746E-02    0.475E-02
RMM:   2    -0.119702215734E+04   -0.13108E-03   -0.95656E-04  6325   0.292E-02    0.377E-02
RMM:   3    -0.119702295724E+04   -0.79990E-03   -0.43208E-04  6568   0.149E-02    0.113E-01
RMM:   4    -0.119702219594E+04    0.76130E-03   -0.18256E-04  6142   0.856E-03    0.417E-02
RMM:   5    -0.119702212179E+04    0.74149E-04   -0.86932E-05  5819   0.544E-03    0.231E-02
RMM:   6    -0.119702209921E+04    0.22579E-04   -0.25212E-05  5403   0.327E-03    0.152E-02
RMM:   7    -0.119702210788E+04   -0.86687E-05   -0.24772E-05  5631   0.257E-03    0.163E-02
RMM:   8    -0.119702210259E+04    0.52880E-05   -0.21840E-05  5809   0.248E-03    0.112E-02
RMM:   9    -0.119702209737E+04    0.52186E-05   -0.77315E-06  4947   0.167E-03    0.500E-03
RMM:  10    -0.119702209680E+04    0.57535E-06   -0.20420E-06  3781   0.108E-03
  30 F= -.12271777E+04 E0= -.12271091E+04  d E =-.716511E-03
 curvature: -24.16 expect dE=-0.439E-02 dE for cont linesearch -0.596E-03
 ZBRENT: increasing intervall
 opt :  11.7696  next Energy= -1227.178804 (dE=-0.185E-02)
 bond charge predicted
       N       E                     dE             d eps       ncg     rms          rms(c)
RMM:   1    -0.119702400625E+04   -0.19089E-02   -0.29460E-02  5907   0.149E-01    0.948E-02
RMM:   2    -0.119702458619E+04   -0.57994E-03   -0.38581E-03  6326   0.584E-02    0.799E-02
RMM:   3    -0.119702817850E+04   -0.35923E-02   -0.17480E-03  6654   0.298E-02    0.240E-01
RMM:   4    -0.119702462827E+04    0.35502E-02   -0.80250E-04  6279   0.174E-02    0.783E-02
RMM:   5    -0.119702438758E+04    0.24069E-03   -0.33664E-04  6223   0.110E-02    0.456E-02
RMM:   6    -0.119702430053E+04    0.87053E-04   -0.97383E-05  5786   0.647E-03    0.305E-02
RMM:   7    -0.119702433651E+04   -0.35984E-04   -0.99985E-05  6091   0.509E-03    0.327E-02
RMM:   8    -0.119702431436E+04    0.22154E-04   -0.86259E-05  6320   0.491E-03    0.222E-02
RMM:   9    -0.119702429428E+04    0.20072E-04   -0.30008E-05  5792   0.326E-03    0.998E-03
RMM:  10    -0.119702429242E+04    0.18644E-05   -0.74042E-06  4784   0.204E-03    0.702E-03
RMM:  11    -0.119702429203E+04    0.39447E-06   -0.71589E-06  4847   0.163E-03
  31 F= -.12271787E+04 E0= -.12271100E+04  d E =-.178643E-02
 curvature: -45.73 expect dE=-0.137E-01 dE for cont linesearch -0.156E-02
 ZBRENT: increasing intervall
 opt :  24.6092  next Energy= -1227.181367 (dE=-0.441E-02)
 bond charge predicted
       N       E                     dE             d eps       ncg     rms          rms(c)
RMM:   1    -0.119702790931E+04   -0.36169E-02   -0.11795E-01  5907   0.299E-01    0.189E-01
RMM:   2    -0.119703077321E+04   -0.28639E-02   -0.15573E-02  6321   0.117E-01    0.181E-01
RMM:   3    -0.119704404571E+04   -0.13272E-01   -0.69312E-03  6689   0.594E-02    0.470E-01
RMM:   4    -0.119703033944E+04    0.13706E-01   -0.34800E-03  6265   0.351E-02    0.153E-01
RMM:   5    -0.119702940639E+04    0.93306E-03   -0.13261E-03  6353   0.221E-02    0.885E-02
RMM:   6    -0.119702908853E+04    0.31785E-03   -0.35707E-04  6184   0.127E-02    0.606E-02
RMM:   7    -0.119702925142E+04   -0.16289E-03   -0.41050E-04  6313   0.100E-02    0.678E-02
RMM:   8    -0.119702913478E+04    0.11664E-03   -0.32936E-04  6467   0.963E-03    0.431E-02
RMM:   9    -0.119702906160E+04    0.73183E-04   -0.10451E-04  6102   0.627E-03    0.195E-02
RMM:  10    -0.119702905784E+04    0.37514E-05   -0.27452E-05  5747   0.392E-03    0.143E-02
RMM:  11    -0.119702906385E+04   -0.60054E-05   -0.31452E-05  5812   0.311E-03    0.149E-02
RMM:  12    -0.119702905457E+04    0.92798E-05   -0.18453E-05  5457   0.241E-03    0.789E-03
RMM:  13    -0.119702905169E+04    0.28796E-05   -0.65582E-06  4607   0.165E-03    0.350E-03
RMM:  14    -0.119702905136E+04    0.33212E-06   -0.14898E-06  3740   0.105E-03
  32 F= -.12271812E+04 E0= -.12271123E+04  d E =-.428822E-02
 curvature: -76.81 expect dE=-0.486E-01 dE for cont linesearch -0.352E-02
 ZBRENT: increasing intervall
 opt :  50.2884  next Energy= -1227.187260 (dE=-0.103E-01)
 bond charge predicted
       N       E                     dE             d eps       ncg     rms          rms(c)
RMM:   1    -0.119703469620E+04   -0.56445E-02   -0.47106E-01  5908   0.598E-01    0.378E-01
RMM:   2    -0.119705474641E+04   -0.20050E-01   -0.64828E-02  6298   0.235E-01    0.499E-01
RMM:   3    -0.119707860121E+04   -0.23855E-01   -0.25648E-02  6761   0.118E-01    0.762E-01
RMM:   4    -0.119704414814E+04    0.34453E-01   -0.14774E-02  6267   0.700E-02    0.298E-01
RMM:   5    -0.119704049665E+04    0.36515E-02   -0.51186E-03  6370   0.435E-02    0.166E-01
RMM:   6    -0.119703945063E+04    0.10460E-02   -0.12891E-03  6248   0.247E-02    0.121E-01
RMM:   7    -0.119704016819E+04   -0.71756E-03   -0.16525E-03  6439   0.201E-02    0.138E-01
RMM:   8    -0.119703952913E+04    0.63906E-03   -0.12536E-03  6487   0.185E-02    0.786E-02
RMM:   9    -0.119703931883E+04    0.21030E-03   -0.38614E-04  6343   0.120E-02    0.398E-02
RMM:  10    -0.119703930352E+04    0.15306E-04   -0.95905E-05  6122   0.759E-03    0.276E-02
RMM:  11    -0.119703931099E+04   -0.74672E-05   -0.10182E-04  6280   0.584E-03    0.229E-02
RMM:  12    -0.119703930303E+04    0.79635E-05   -0.60805E-05  6069   0.433E-03    0.188E-02
RMM:  13    -0.119703928400E+04    0.19022E-04   -0.20662E-05  5476   0.294E-03    0.660E-03
RMM:  14    -0.119703928379E+04    0.21631E-06   -0.50398E-06  4533   0.180E-03
  33 F= -.12271869E+04 E0= -.12271174E+04  d E =-.997826E-02
 curvature: ****** expect dE=-0.225E+00 dE for cont linesearch -0.778E-02
 ZBRENT: increasing intervall
 opt : 101.6467  next Energy= -1227.200417 (dE=-0.235E-01)
 bond charge predicted
       N       E                     dE             d eps       ncg     rms          rms(c)
RMM:   1    -0.119704659064E+04   -0.73066E-02   -0.18818E+00  5908   0.120E+00    0.763E-01
RMM:   2    -0.119722793088E+04   -0.18134E+00   -0.29755E-01  6293   0.481E-01    0.152E+00
RMM:   3    -0.119716366434E+04    0.64267E-01   -0.10363E-01  6683   0.240E-01    0.121E+00
RMM:   4    -0.119708479008E+04    0.78874E-01   -0.62396E-02  6239   0.145E-01    0.603E-01
RMM:   5    -0.119706943350E+04    0.15357E-01   -0.21884E-02  6379   0.888E-02    0.315E-01
RMM:   6    -0.119706602383E+04    0.34097E-02   -0.51057E-03  6178   0.502E-02    0.246E-01
RMM:   7    -0.119706884556E+04   -0.28217E-02   -0.63998E-03  6462   0.398E-02    0.280E-01
RMM:   8    -0.119706587933E+04    0.29662E-02   -0.45065E-03  6412   0.353E-02    0.150E-01
RMM:   9    -0.119706546539E+04    0.41394E-03   -0.17775E-03  6448   0.249E-02    0.920E-02
RMM:  10    -0.119706537581E+04    0.89584E-04   -0.54568E-04  6345   0.166E-02    0.641E-02
RMM:  11    -0.119706545725E+04   -0.81446E-04   -0.36831E-04  6477   0.114E-02    0.670E-02
RMM:  12    -0.119706525128E+04    0.20597E-03   -0.21952E-04  6240   0.863E-03    0.281E-02
RMM:  13    -0.119706523761E+04    0.13673E-04   -0.73849E-05  6128   0.608E-03    0.184E-02
RMM:  14    -0.119706523766E+04   -0.53507E-07   -0.39090E-05  5972   0.399E-03    0.171E-02
RMM:  15    -0.119706522707E+04    0.10585E-04   -0.17087E-05  5431   0.270E-03    0.106E-02
RMM:  16    -0.119706522438E+04    0.26928E-05   -0.91288E-06  5036   0.196E-03    0.721E-03
RMM:  17    -0.119706522549E+04   -0.11064E-05   -0.52515E-06  4582   0.147E-03    0.739E-03
RMM:  18    -0.119706522324E+04    0.22517E-05   -0.27645E-06  3911   0.112E-03    0.392E-03
RMM:  19    -0.119706522316E+04    0.77474E-07   -0.10200E-06  3548   0.834E-04
  34 F= -.12272037E+04 E0= -.12271327E+04  d E =-.267172E-01
 curvature: ****** expect dE=-0.119E+01 dE for cont linesearch -0.432E-01
 ZBRENT: increasing intervall
 opt : 204.3633  next Energy= -1227.265706 (dE=-0.887E-01)
 bond charge predicted
       N       E                     dE             d eps       ncg     rms          rms(c)
RMM:   1    -0.119706588609E+04   -0.66286E-03   -0.74749E+00  5907   0.240E+00    0.155E+00
RMM:   2    -0.119900840065E+04   -0.19425E+01   -0.16964E+00  6319   0.102E+00    0.461E+00
RMM:   3    -0.119743142812E+04    0.15770E+01   -0.49735E-01  6505   0.515E-01    0.209E+00
RMM:   4    -0.119720750477E+04    0.22392E+00   -0.28398E-01  6263   0.312E-01    0.111E+00
RMM:   5    -0.119715636937E+04    0.51135E-01   -0.91728E-02  6392   0.185E-01    0.603E-01
RMM:   6    -0.119714676523E+04    0.96041E-02   -0.20236E-02  6228   0.103E-01    0.504E-01
RMM:   7    -0.119715455916E+04   -0.77939E-02   -0.20451E-02  6450   0.750E-02    0.541E-01
RMM:   8    -0.119714661664E+04    0.79425E-02   -0.16449E-02  6392   0.679E-02    0.350E-01
RMM:   9    -0.119714527345E+04    0.13432E-02   -0.94618E-03  6541   0.549E-02    0.238E-01
RMM:  10    -0.119714476187E+04    0.51157E-03   -0.43409E-03  6553   0.384E-02    0.194E-01
RMM:  11    -0.119714362919E+04    0.11327E-02   -0.21591E-03  6413   0.266E-02    0.121E-01
RMM:  12    -0.119714310410E+04    0.52509E-03   -0.81735E-04  6311   0.187E-02    0.633E-02
RMM:  13    -0.119714317281E+04   -0.68707E-04   -0.57543E-04  6703   0.136E-02    0.616E-02
RMM:  14    -0.119714303872E+04    0.13409E-03   -0.30103E-04  6227   0.983E-03    0.409E-02
RMM:  15    -0.119714297129E+04    0.67437E-04   -0.10206E-04  6046   0.657E-03    0.223E-02
RMM:  16    -0.119714296772E+04    0.35714E-05   -0.35295E-05  6064   0.434E-03    0.177E-02
RMM:  17    -0.119714296791E+04   -0.18919E-06   -0.25371E-05  5793   0.314E-03    0.157E-02
RMM:  18    -0.119714295983E+04    0.80738E-05   -0.12534E-05  5410   0.244E-03    0.864E-03
RMM:  19    -0.119714295971E+04    0.12525E-06   -0.57414E-06  4768   0.174E-03
  35 F= -.12272624E+04 E0= -.12271892E+04  d E =-.854784E-01
 curvature: ****** expect dE=-0.599E+01 dE for cont linesearch -0.166E+00
 ZBRENT: increasing intervall
 opt : 409.7966  next Energy= -1227.457849 (dE=-0.281E+00)
 bond charge predicted
       N       E                     dE             d eps       ncg     rms          rms(c)
RMM:   1    -0.119699147609E+04    0.15148E+00   -0.29531E+01  5909   0.483E+00    0.313E+00
RMM:   2    -0.121194481883E+04   -0.14953E+02   -0.10755E+01  6330   0.224E+00    0.107E+01
RMM:   3    -0.119811030693E+04    0.13835E+02   -0.28740E+00  6324   0.118E+00    0.332E+00
RMM:   4    -0.119751445697E+04    0.59585E+00   -0.12785E+00  6375   0.688E-01    0.187E+00
RMM:   5    -0.119738557077E+04    0.12889E+00   -0.38104E-01  6572   0.386E-01    0.124E+00
RMM:   6    -0.119735735590E+04    0.28215E-01   -0.95845E-02  6396   0.216E-01    0.106E+00
RMM:   7    -0.119737026513E+04   -0.12909E-01   -0.64999E-02  6503   0.144E-01    0.107E+00
RMM:   8    -0.119734461839E+04    0.25647E-01   -0.42516E-02  6194   0.119E-01    0.699E-01
RMM:   9    -0.119736091430E+04   -0.16296E-01   -0.56975E-02  6782   0.124E-01    0.686E-01
RMM:  10    -0.119733908948E+04    0.21825E-01   -0.26493E-02  6666   0.883E-02    0.303E-01
RMM:  11    -0.119733816231E+04    0.92717E-03   -0.89084E-03  6487   0.566E-02    0.226E-01
RMM:  12    -0.119733677801E+04    0.13843E-02   -0.42631E-03  6517   0.398E-02    0.154E-01
RMM:  13    -0.119733654334E+04    0.23467E-03   -0.29239E-03  6597   0.292E-02    0.128E-01
RMM:  14    -0.119733587961E+04    0.66373E-03   -0.11072E-03  6196   0.213E-02    0.740E-02
RMM:  15    -0.119733584842E+04    0.31188E-04   -0.50846E-04  6532   0.143E-02    0.607E-02
RMM:  16    -0.119733573971E+04    0.10871E-03   -0.21244E-04  6166   0.959E-03    0.435E-02
RMM:  17    -0.119733569496E+04    0.44751E-04   -0.10172E-04  6234   0.651E-03    0.263E-02
RMM:  18    -0.119733568428E+04    0.10679E-04   -0.53326E-05  6022   0.507E-03    0.172E-02
RMM:  19    -0.119733568858E+04   -0.43047E-05   -0.26829E-05  6205   0.361E-03    0.149E-02
RMM:  20    -0.119733568448E+04    0.40988E-05   -0.15180E-05  5476   0.252E-03    0.110E-02
RMM:  21    -0.119733568022E+04    0.42639E-05   -0.72398E-06  4930   0.182E-03    0.594E-03
RMM:  22    -0.119733567977E+04    0.44564E-06   -0.28254E-06  4122   0.128E-03
  36 F= -.12274138E+04 E0= -.12273411E+04  d E =-.236865E+00
 curvature: ****** expect dE=-0.248E+02 dE for cont linesearch -0.188E+00
 ZBRENT: increasing intervall
 opt : 820.6632  next Energy= -1227.685126 (dE=-0.508E+00)
 bond charge predicted
       N       E                     dE             d eps       ncg     rms          rms(c)
RMM:   1    -0.119569566737E+04    0.16400E+01   -0.11702E+02  5912   0.969E+00    0.633E+00
RMM:   2    -0.126095759196E+04   -0.65262E+02   -0.68442E+01  6536   0.495E+00    0.204E+01
RMM:   3    -0.119990290127E+04    0.61055E+02   -0.16277E+01  6163   0.271E+00    0.546E+00
RMM:   4    -0.119776547359E+04    0.21374E+01   -0.68655E+00  6566   0.157E+00    0.336E+00
RMM:   5    -0.119741894499E+04    0.34653E+00   -0.13889E+00  6636   0.827E-01    0.252E+00
RMM:   6    -0.119734473553E+04    0.74209E-01   -0.50012E-01  6694   0.463E-01    0.215E+00
RMM:   7    -0.119734853160E+04   -0.37961E-02   -0.18230E-01  6293   0.286E-01    0.208E+00
RMM:   8    -0.119730870223E+04    0.39829E-01   -0.15973E-01  6295   0.225E-01    0.164E+00
RMM:   9    -0.119733648786E+04   -0.27786E-01   -0.21035E-01  6733   0.257E-01    0.130E+00
RMM:  10    -0.119727905061E+04    0.57437E-01   -0.11696E-01  6678   0.186E-01    0.733E-01
RMM:  11    -0.119726376295E+04    0.15288E-01   -0.49233E-02  6566   0.130E-01    0.491E-01
RMM:  12    -0.119725741531E+04    0.63476E-02   -0.21442E-02  6719   0.865E-02    0.340E-01
RMM:  13    -0.119725308609E+04    0.43292E-02   -0.89439E-03  6227   0.597E-02    0.208E-01
RMM:  14    -0.119725220845E+04    0.87764E-03   -0.48763E-03  6346   0.459E-02    0.142E-01
RMM:  15    -0.119725208282E+04    0.12563E-03   -0.21881E-03  6595   0.313E-02    0.123E-01
RMM:  16    -0.119725161659E+04    0.46623E-03   -0.95859E-04  6182   0.210E-02    0.790E-02
RMM:  17    -0.119725162522E+04   -0.86288E-05   -0.50848E-04  6635   0.146E-02    0.713E-02
RMM:  18    -0.119725152571E+04    0.99507E-04   -0.29909E-04  6205   0.106E-02    0.496E-02
RMM:  19    -0.119725146018E+04    0.65531E-04   -0.13387E-04  6163   0.770E-03    0.337E-02
RMM:  20    -0.119725144444E+04    0.15736E-04   -0.76330E-05  6179   0.594E-03    0.209E-02
RMM:  21    -0.119725143707E+04    0.73693E-05   -0.31942E-05  5992   0.406E-03    0.124E-02
RMM:  22    -0.119725143705E+04    0.21144E-07   -0.16405E-05  5714   0.274E-03    0.108E-02
RMM:  23    -0.119725143425E+04    0.28002E-05   -0.94551E-06  5093   0.190E-03    0.785E-03
RMM:  24    -0.119725143239E+04    0.18661E-05   -0.42620E-06  4555   0.149E-03    0.384E-03
RMM:  25    -0.119725143275E+04   -0.36154E-06   -0.20183E-06  3736   0.106E-03
  37 F= -.12272257E+04 E0= -.12271563E+04  d E =-.487802E-01
 curvature: ****** expect dE=-0.136E+03 dE for cont linesearch -0.300E+01
 ZBRENT: bracketing found
 ZBRENT: interpolating
 opt : 504.8450  next Energy= -1227.445794 (dE=-0.269E+00)
 bond charge predicted
       N       E                     dE             d eps       ncg     rms          rms(c)
RMM:   1    -0.119644033974E+04    0.81109E+00   -0.69394E+01  5902   0.738E+00    0.468E+00
RMM:   2    -0.120703870599E+04   -0.10598E+02   -0.10476E+01  6252   0.286E+00    0.953E+00
RMM:   3    -0.119963986702E+04    0.73988E+01   -0.41135E+00  6593   0.156E+00    0.549E+00
RMM:   4    -0.119800004338E+04    0.16398E+01   -0.18275E+00  6244   0.879E-01    0.304E+00
RMM:   5    -0.119751299180E+04    0.48705E+00   -0.59874E-01  6278   0.530E-01    0.193E+00
RMM:   6    -0.119747049814E+04    0.42494E-01   -0.27534E-01  6824   0.322E-01    0.168E+00
RMM:   7    -0.119744824200E+04    0.22256E-01   -0.83205E-02  6112   0.200E-01    0.150E+00
RMM:   8    -0.119744490830E+04    0.33337E-02   -0.13314E-01  6562   0.186E-01    0.118E+00
RMM:   9    -0.119742908659E+04    0.15822E-01   -0.11753E-01  6744   0.190E-01    0.667E-01
RMM:  10    -0.119742459894E+04    0.44876E-02   -0.50781E-02  6676   0.130E-01    0.561E-01
RMM:  11    -0.119741155328E+04    0.13046E-01   -0.19387E-02  6459   0.834E-02    0.305E-01
RMM:  12    -0.119740819073E+04    0.33625E-02   -0.66772E-03  6136   0.555E-02    0.234E-01
RMM:  13    -0.119740845622E+04   -0.26548E-03   -0.67363E-03  6410   0.460E-02    0.220E-01
RMM:  14    -0.119740598932E+04    0.24669E-02   -0.41427E-03  6333   0.402E-02    0.900E-02
RMM:  15    -0.119740604766E+04   -0.58343E-04   -0.12336E-03  7235   0.246E-02    0.831E-02
RMM:  16    -0.119740587616E+04    0.17150E-03   -0.48738E-04  6255   0.142E-02    0.616E-02
RMM:  17    -0.119740578279E+04    0.93369E-04   -0.20070E-04  6025   0.103E-02    0.409E-02
RMM:  18    -0.119740578491E+04   -0.21203E-05   -0.13172E-04  6274   0.789E-03    0.318E-02
RMM:  19    -0.119740578122E+04    0.36859E-05   -0.84476E-05  6221   0.612E-03    0.261E-02
RMM:  20    -0.119740576261E+04    0.18617E-04   -0.43811E-05  6057   0.448E-03    0.176E-02
RMM:  21    -0.119740575388E+04    0.87260E-05   -0.18659E-05  5686   0.313E-03    0.105E-02
RMM:  22    -0.119740575285E+04    0.10304E-05   -0.91471E-06  5353   0.220E-03    0.808E-03
RMM:  23    -0.119740575163E+04    0.12239E-05   -0.42737E-06  4533   0.155E-03    0.586E-03
RMM:  24    -0.119740575188E+04   -0.25510E-06   -0.35390E-06  4168   0.118E-03
  38 F= -.12274628E+04 E0= -.12273900E+04  d E =-.285881E+00
 curvature:  -5.91 expect dE=-0.565E+00 dE for cont linesearch -0.784E-03
 ZBRENT: interpolating
 opt : 593.9686  next Energy= -1227.480547 (dE=-0.304E+00)
 bond charge predicted
       N       E                     dE             d eps       ncg     rms          rms(c)
RMM:   1    -0.119737254433E+04    0.33207E-01   -0.58641E+00  5910   0.215E+00    0.133E+00
RMM:   2    -0.120112245971E+04   -0.37499E+01   -0.18080E+00  6339   0.949E-01    0.677E+00
RMM:   3    -0.119752334817E+04    0.35991E+01   -0.53684E-01  6224   0.511E-01    0.120E+00
RMM:   4    -0.119747739650E+04    0.45952E-01   -0.24195E-01  6469   0.300E-01    0.895E-01
RMM:   5    -0.119744776505E+04    0.29631E-01   -0.61536E-02  6451   0.165E-01    0.572E-01
RMM:   6    -0.119744141544E+04    0.63496E-02   -0.20659E-02  6611   0.947E-02    0.485E-01
RMM:   7    -0.119744229650E+04   -0.88106E-03   -0.13415E-02  6409   0.630E-02    0.450E-01
RMM:   8    -0.119743844783E+04    0.38487E-02   -0.83625E-03  6182   0.558E-02    0.285E-01
RMM:   9    -0.119744097823E+04   -0.25304E-02   -0.10076E-02  6754   0.512E-02    0.281E-01
RMM:  10    -0.119743699675E+04    0.39815E-02   -0.45730E-03  6520   0.381E-02    0.103E-01
RMM:  11    -0.119743704453E+04   -0.47787E-04   -0.95814E-04  6404   0.225E-02    0.960E-02
RMM:  12    -0.119743675175E+04    0.29279E-03   -0.54710E-04  6441   0.148E-02    0.616E-02
RMM:  13    -0.119743672342E+04    0.28323E-04   -0.43184E-04  6325   0.118E-02    0.529E-02
RMM:  14    -0.119743659655E+04    0.12687E-03   -0.16536E-04  6090   0.871E-03    0.238E-02
RMM:  15    -0.119743659293E+04    0.36274E-05   -0.70396E-05  6418   0.583E-03    0.178E-02
RMM:  16    -0.119743659493E+04   -0.20012E-05   -0.32770E-05  5943   0.395E-03    0.155E-02
RMM:  17    -0.119743658944E+04    0.54851E-05   -0.16375E-05  5527   0.279E-03    0.113E-02
RMM:  18    -0.119743658574E+04    0.37017E-05   -0.64954E-06  4976   0.193E-03    0.681E-03
RMM:  19    -0.119743658730E+04   -0.15570E-05   -0.46125E-06  4502   0.147E-03    0.694E-03
RMM:  20    -0.119743658532E+04    0.19786E-05   -0.24115E-06  3840   0.110E-03    0.322E-03
RMM:  21    -0.119743658533E+04   -0.69558E-08   -0.10531E-06  3508   0.819E-04
  39 F= -.12274724E+04 E0= -.12273997E+04  d E =-.295426E+00
 curvature: ****** expect dE=-0.171E+02 dE for cont linesearch -0.205E-02
 ZBRENT: interpolating
 opt : 571.3231  next Energy= -1227.473734 (dE=-0.297E+00)
 bond charge predicted
       N       E                     dE             d eps       ncg     rms          rms(c)
RMM:   1    -0.119742849165E+04    0.80937E-02   -0.38217E-01  5910   0.548E-01    0.331E-01
RMM:   2    -0.119764823324E+04   -0.21974E+00   -0.88635E-02  6314   0.225E-01    0.174E+00
RMM:   3    -0.119743681237E+04    0.21142E+00   -0.27737E-02  6261   0.122E-01    0.286E-01
RMM:   4    -0.119743587397E+04    0.93839E-03   -0.14527E-02  6460   0.726E-02    0.260E-01
RMM:   5    -0.119743346752E+04    0.24064E-02   -0.35729E-03  6353   0.406E-02    0.147E-01
RMM:   6    -0.119743288582E+04    0.58170E-03   -0.13775E-03  6664   0.237E-02    0.118E-01
RMM:   7    -0.119743318851E+04   -0.30268E-03   -0.12114E-03  6357   0.172E-02    0.121E-01
RMM:   8    -0.119743280040E+04    0.38811E-03   -0.68964E-04  6231   0.161E-02    0.627E-02
RMM:   9    -0.119743281015E+04   -0.97555E-05   -0.47344E-04  6524   0.119E-02    0.540E-02
RMM:  10    -0.119743269736E+04    0.11280E-03   -0.20208E-04  6361   0.857E-03    0.266E-02
RMM:  11    -0.119743268603E+04    0.11325E-04   -0.58878E-05  6060   0.536E-03    0.230E-02
RMM:  12    -0.119743267505E+04    0.10985E-04   -0.37610E-05  5973   0.375E-03    0.157E-02
RMM:  13    -0.119743267144E+04    0.36026E-05   -0.25242E-05  5710   0.298E-03    0.128E-02
RMM:  14    -0.119743266459E+04    0.68496E-05   -0.12262E-05  5409   0.231E-03    0.562E-03
RMM:  15    -0.119743266430E+04    0.29386E-06   -0.53355E-06  4616   0.158E-03
  40 F= -.12274741E+04 E0= -.12274013E+04  d E =-.297102E+00
 curvature: -87.78 expect dE=-0.105E+02 dE for cont linesearch -0.770E-04
 ZBRENT: interpolating
 opt : 575.6879  next Energy= -1227.474122 (dE=-0.297E+00)
 bond charge predicted
       N       E                     dE             d eps       ncg     rms          rms(c)
RMM:   1    -0.119743353422E+04   -0.86962E-03   -0.14140E-02  5910   0.106E-01    0.633E-02
RMM:   2    -0.119744215566E+04   -0.86214E-02   -0.33961E-03  6322   0.440E-02    0.375E-01
RMM:   3    -0.119743385037E+04    0.83053E-02   -0.10669E-03  6266   0.237E-02    0.580E-02
RMM:   4    -0.119743379934E+04    0.51026E-04   -0.52063E-04  6351   0.140E-02    0.487E-02
RMM:   5    -0.119743371090E+04    0.88438E-04   -0.12993E-04  6011   0.784E-03    0.283E-02
RMM:   6    -0.119743369247E+04    0.18437E-04   -0.47579E-05  5820   0.459E-03    0.238E-02
RMM:   7    -0.119743369833E+04   -0.58603E-05   -0.39346E-05  5623   0.329E-03    0.229E-02
RMM:   8    -0.119743368757E+04    0.10755E-04   -0.26245E-05  5888   0.314E-03    0.138E-02
RMM:   9    -0.119743368418E+04    0.33935E-05   -0.19016E-05  5638   0.240E-03    0.103E-02
RMM:  10    -0.119743367989E+04    0.42869E-05   -0.68008E-06  4762   0.174E-03    0.507E-03
RMM:  11    -0.119743367931E+04    0.58200E-06   -0.23268E-06  3942   0.114E-03
  41 F= -.12274740E+04 E0= -.12274013E+04  d E =-.297047E+00
 curvature: -70.86 expect dE=-0.859E+01 dE for cont linesearch -0.700E-05
 trial: gam=******** g(F)=  0.121E+00 g(S)=  0.000E+00 ort =-0.956E-05 (trialstep = 0.953E-04)
 search vector abs. value=  0.112E+04
 bond charge predicted
       N       E                     dE             d eps       ncg     rms          rms(c)
RMM:   1    -0.119743371271E+04   -0.32814E-04   -0.97800E-06  5120   0.270E-03    0.361E-03
RMM:   2    -0.119743372421E+04   -0.11502E-04   -0.63004E-06  4725   0.155E-03    0.141E-02
RMM:   3    -0.119743371882E+04    0.53868E-05   -0.28926E-06  4064   0.106E-03    0.994E-03
RMM:   4    -0.119743371245E+04    0.63685E-05   -0.16998E-06  3806   0.780E-04    0.201E-03
RMM:   5    -0.119743371249E+04   -0.38228E-07   -0.46356E-07  2986   0.520E-04    0.188E-03
RMM:   6    -0.119743371241E+04    0.83368E-07   -0.15585E-07  2243   0.383E-04
  42 F= -.12274740E+04 E0= -.12274013E+04  d E =-.872756E-05
 ZBRENT: can't locate minimum, use default step
 trial-energy change:   -0.000009  1 .order   -0.000011   -0.000011   -0.000010
 step:   0.0004(harm=  0.0124)  dis= 0.00033  next Energy= -1227.474692 (dE=-0.687E-03)
 bond charge predicted
       N       E                     dE             d eps       ncg     rms          rms(c)
RMM:   1    -0.119743381341E+04   -0.10092E-03   -0.75225E-05  5880   0.767E-03    0.491E-03
RMM:   2    -0.119743387306E+04   -0.59653E-04   -0.20802E-05  5407   0.331E-03    0.306E-02
RMM:   3    -0.119743381498E+04    0.58085E-04   -0.65812E-06  4651   0.188E-03    0.478E-03
RMM:   4    -0.119743381484E+04    0.14089E-06   -0.33820E-06  4111   0.117E-03    0.411E-03
RMM:   5    -0.119743381420E+04    0.63420E-06   -0.74736E-07  3497   0.693E-04    0.243E-03
RMM:   6    -0.119743381412E+04    0.85434E-07   -0.25599E-07  2917   0.456E-04
  43 F= -.12274740E+04 E0= -.12274013E+04  d E =-.348539E-04
 curvature:  -2.89 expect dE=-0.350E+00 dE for cont linesearch -0.297E-04
 ZBRENT: increasing intervall
 opt :   0.0010  next Energy= -1227.474100 (dE=-0.948E-04)
 bond charge predicted
       N       E                     dE             d eps       ncg     rms          rms(c)
RMM:   1    -0.119743401311E+04   -0.19891E-03   -0.29788E-04  5900   0.153E-02    0.962E-03
RMM:   2    -0.119743421503E+04   -0.20192E-03   -0.70752E-05  6055   0.643E-03    0.576E-02
RMM:   3    -0.119743402096E+04    0.19407E-03   -0.23598E-05  5350   0.355E-03    0.105E-02
RMM:   4    -0.119743401865E+04    0.23137E-05   -0.12054E-05  5055   0.218E-03    0.823E-03
RMM:   5    -0.119743401637E+04    0.22802E-05   -0.27109E-06  3926   0.126E-03    0.481E-03
RMM:   6    -0.119743401609E+04    0.27889E-06   -0.95222E-07  3556   0.777E-04
  44 F= -.12274741E+04 E0= -.12274014E+04  d E =-.841803E-04
 curvature:  -5.84 expect dE=-0.709E+00 dE for cont linesearch -0.558E-04
 ZBRENT: increasing intervall
 opt :   0.0021  next Energy= -1227.474203 (dE=-0.198E-03)
 bond charge predicted
       N       E                     dE             d eps       ncg     rms          rms(c)
RMM:   1    -0.119743439999E+04   -0.38363E-03   -0.11869E-03  5914   0.305E-02    0.188E-02
RMM:   2    -0.119743528547E+04   -0.88547E-03   -0.29185E-04  6305   0.128E-02    0.119E-01
RMM:   3    -0.119743442247E+04    0.86300E-03   -0.97035E-05  5954   0.705E-03    0.173E-02
RMM:   4    -0.119743442259E+04   -0.12570E-06   -0.46429E-05  5653   0.418E-03    0.154E-02
RMM:   5    -0.119743441262E+04    0.99709E-05   -0.95005E-06  4841   0.235E-03    0.843E-03
RMM:   6    -0.119743441315E+04   -0.52732E-06   -0.60200E-06  4612   0.150E-03
  45 F= -.12274742E+04 E0= -.12274015E+04  d E =-.174833E-03
 curvature: -11.92 expect dE=-0.146E+01 dE for cont linesearch -0.963E-04
 ZBRENT: increasing intervall
 opt :   0.0044  next Energy= -1227.474378 (dE=-0.373E-03)
 bond charge predicted
       N       E                     dE             d eps       ncg     rms          rms(c)
RMM:   1    -0.119743513571E+04   -0.72309E-03   -0.47107E-03  5912   0.609E-02    0.371E-02
RMM:   2    -0.119743816622E+04   -0.30305E-02   -0.10862E-03  6323   0.254E-02    0.220E-01
RMM:   3    -0.119743523479E+04    0.29314E-02   -0.35413E-04  6206   0.137E-02    0.356E-02
RMM:   4    -0.119743522178E+04    0.13013E-04   -0.17350E-04  6144   0.817E-03    0.289E-02
RMM:   5    -0.119743518938E+04    0.32401E-04   -0.33779E-05  5479   0.450E-03    0.173E-02
RMM:   6    -0.119743519022E+04   -0.83960E-06   -0.18055E-05  5584   0.274E-03    0.169E-02
RMM:   7    -0.119743519332E+04   -0.31030E-05   -0.22970E-05  5520   0.234E-03    0.150E-02
RMM:   8    -0.119743518649E+04    0.68353E-05   -0.19050E-05  5810   0.235E-03    0.891E-03
RMM:   9    -0.119743518451E+04    0.19757E-05   -0.91345E-06  5076   0.164E-03    0.587E-03
RMM:  10    -0.119743518272E+04    0.17879E-05   -0.22798E-06  3947   0.110E-03    0.289E-03
RMM:  11    -0.119743518259E+04    0.13642E-06   -0.87606E-07  3537   0.731E-04
  46 F= -.12274743E+04 E0= -.12274016E+04  d E =-.319316E-03
 curvature: -24.56 expect dE=-0.302E+01 dE for cont linesearch -0.144E-03
 ZBRENT: increasing intervall
 opt :   0.0090  next Energy= -1227.474631 (dE=-0.626E-03)
 bond charge predicted
       N       E                     dE             d eps       ncg     rms          rms(c)
RMM:   1    -0.119743639280E+04   -0.12101E-02   -0.18944E-02  5909   0.122E-01    0.741E-02
RMM:   2    -0.119744856630E+04   -0.12173E-01   -0.46734E-03  6325   0.511E-02    0.447E-01
RMM:   3    -0.119743681510E+04    0.11751E-01   -0.14848E-03  6242   0.277E-02    0.662E-02
RMM:   4    -0.119743675816E+04    0.56942E-04   -0.73531E-04  6410   0.165E-02    0.569E-02
RMM:   5    -0.119743663742E+04    0.12074E-03   -0.18859E-04  6115   0.918E-03    0.327E-02
RMM:   6    -0.119743661033E+04    0.27090E-04   -0.68615E-05  5931   0.534E-03    0.271E-02
RMM:   7    -0.119743661964E+04   -0.93083E-05   -0.56885E-05  5729   0.384E-03    0.263E-02
RMM:   8    -0.119743660600E+04    0.13635E-04   -0.34925E-05  5932   0.362E-03    0.159E-02
RMM:   9    -0.119743660129E+04    0.47152E-05   -0.25258E-05  5815   0.275E-03    0.116E-02
RMM:  10    -0.119743659611E+04    0.51731E-05   -0.95856E-06  5072   0.199E-03    0.601E-03
RMM:  11    -0.119743659535E+04    0.76639E-06   -0.32554E-06  4129   0.131E-03
  47 F= -.12274745E+04 E0= -.12274018E+04  d E =-.489462E-03
 curvature: -52.29 expect dE=-0.653E+01 dE for cont linesearch -0.824E-04
 ZBRENT: increasing intervall
 opt :   0.0181  next Energy= -1227.474521 (dE=-0.517E-03)
 bond charge predicted
       N       E                     dE             d eps       ncg     rms          rms(c)
RMM:   1    -0.119743820493E+04   -0.16088E-02   -0.75806E-02  5910   0.244E-01    0.148E-01
RMM:   2    -0.119748830098E+04   -0.50096E-01   -0.19180E-02  6333   0.103E-01    0.909E-01
RMM:   3    -0.119743987821E+04    0.48423E-01   -0.61041E-03  6242   0.557E-02    0.130E-01
RMM:   4    -0.119743964621E+04    0.23200E-03   -0.29571E-03  6463   0.331E-02    0.112E-01
RMM:   5    -0.119743919178E+04    0.45443E-03   -0.75137E-04  6365   0.184E-02    0.664E-02
RMM:   6    -0.119743907980E+04    0.11198E-03   -0.27747E-04  6423   0.106E-02    0.545E-02
RMM:   7    -0.119743911481E+04   -0.35010E-04   -0.22379E-04  6152   0.752E-03    0.523E-02
RMM:   8    -0.119743905771E+04    0.57108E-04   -0.13449E-04  6164   0.706E-03    0.304E-02
RMM:   9    -0.119743905025E+04    0.74610E-05   -0.10227E-04  6310   0.541E-03    0.241E-02
RMM:  10    -0.119743902720E+04    0.23041E-04   -0.39675E-05  5886   0.390E-03    0.114E-02
RMM:  11    -0.119743902451E+04    0.26889E-05   -0.12062E-05  5251   0.245E-03    0.974E-03
RMM:  12    -0.119743902202E+04    0.24988E-05   -0.66037E-06  4789   0.171E-03    0.652E-03
RMM:  13    -0.119743902152E+04    0.49915E-06   -0.42889E-06  4389   0.130E-03
  48 F= -.12274744E+04 E0= -.12274018E+04  d E =-.411232E-03
 curvature: -17.32 expect dE=-0.223E+01 dE for cont linesearch -0.101E-05
 trial: gam= 0.03214 g(F)=  0.129E+00 g(S)=  0.000E+00 ort =-0.807E-02 (trialstep = 0.370E-02)
 search vector abs. value=  0.129E+01
 bond charge predicted
       N       E                     dE             d eps       ncg     rms          rms(c)
RMM:   1    -0.119743952330E+04   -0.50129E-03   -0.20044E-05  5522   0.353E-03    0.337E-03
RMM:   2    -0.119743953557E+04   -0.12271E-04   -0.55857E-06  4527   0.175E-03    0.140E-02
RMM:   3    -0.119743952372E+04    0.11855E-04   -0.15321E-06  3714   0.100E-03    0.299E-03
RMM:   4    -0.119743952376E+04   -0.47017E-07   -0.10571E-06  3539   0.719E-04    0.281E-03
RMM:   5    -0.119743952350E+04    0.26127E-06   -0.39092E-07  3222   0.519E-04    0.180E-03
RMM:   6    -0.119743952345E+04    0.50131E-07   -0.13735E-07  2377   0.373E-04
  49 F= -.12274749E+04 E0= -.12274023E+04  d E =-.470336E-03
 ZBRENT: can't locate minimum, use default step
 trial-energy change:   -0.000470  1 .order   -0.000475   -0.000475   -0.000475
 step:   0.0148(harm=  0.0148)  dis= 0.00045  next Energy= -1227.476316 (dE=-0.190E-02)
 bond charge predicted
       N       E                     dE             d eps       ncg     rms          rms(c)
RMM:   1    -0.119744103288E+04   -0.15094E-02   -0.13204E-04  5880   0.973E-03    0.609E-03
RMM:   2    -0.119744111869E+04   -0.85808E-04   -0.34811E-05  5742   0.424E-03    0.374E-02
RMM:   3    -0.119744103654E+04    0.82151E-04   -0.10506E-05  4967   0.237E-03    0.667E-03
RMM:   4    -0.119744103535E+04    0.11918E-05   -0.52843E-06  4411   0.145E-03    0.524E-03
RMM:   5    -0.119744103441E+04    0.93706E-06   -0.15072E-06  3717   0.867E-04    0.282E-03
RMM:   6    -0.119744103419E+04    0.22477E-06   -0.39739E-07  3254   0.540E-04
  50 F= -.12274763E+04 E0= -.12274037E+04  d E =-.188649E-02
 curvature:  -0.11 expect dE=-0.143E-01 dE for cont linesearch -0.143E-02
 ZBRENT: increasing intervall
 opt :   0.0370  next Energy= -1227.479155 (dE=-0.474E-02)
 bond charge predicted
       N       E                     dE             d eps       ncg     rms          rms(c)
RMM:   1    -0.119744405077E+04   -0.30164E-02   -0.53260E-04  5911   0.195E-02    0.119E-02
RMM:   2    -0.119744446639E+04   -0.41562E-03   -0.13567E-04  6194   0.845E-03    0.818E-02
RMM:   3    -0.119744406079E+04    0.40559E-03   -0.43889E-05  5531   0.469E-03    0.113E-02
RMM:   4    -0.119744405979E+04    0.10031E-05   -0.19880E-05  5365   0.277E-03    0.933E-03
RMM:   5    -0.119744405618E+04    0.36106E-05   -0.38890E-06  4098   0.154E-03    0.534E-03
RMM:   6    -0.119744405619E+04   -0.65920E-08   -0.20573E-06  3867   0.981E-04
  51 F= -.12274791E+04 E0= -.12274065E+04  d E =-.471971E-02
 curvature:  -0.22 expect dE=-0.286E-01 dE for cont linesearch -0.285E-02
 ZBRENT: increasing intervall
 opt :   0.0813  next Energy= -1227.484831 (dE=-0.104E-01)
 bond charge predicted
       N       E                     dE             d eps       ncg     rms          rms(c)
RMM:   1    -0.119745006897E+04   -0.60128E-02   -0.21096E-03  5930   0.388E-02    0.232E-02
RMM:   2    -0.119745156451E+04   -0.14955E-02   -0.51274E-04  6314   0.167E-02    0.154E-01
RMM:   3    -0.119745010902E+04    0.14555E-02   -0.16402E-04  6049   0.913E-03    0.220E-02
RMM:   4    -0.119745010512E+04    0.39013E-05   -0.73070E-05  5795   0.533E-03    0.180E-02
RMM:   5    -0.119745009280E+04    0.12319E-04   -0.14101E-05  5157   0.292E-03    0.112E-02
RMM:   6    -0.119745009290E+04   -0.10028E-06   -0.75966E-06  4838   0.180E-03
  52 F= -.12274848E+04 E0= -.12274122E+04  d E =-.103835E-01
 curvature:  -0.44 expect dE=-0.571E-01 dE for cont linesearch -0.568E-02
 ZBRENT: increasing intervall
 opt :   0.1701  next Energy= -1227.496165 (dE=-0.217E-01)
 bond charge predicted
       N       E                     dE             d eps       ncg     rms          rms(c)
RMM:   1    -0.119746206225E+04   -0.11969E-01   -0.84978E-03  5932   0.777E-02    0.470E-02
RMM:   2    -0.119746807211E+04   -0.60099E-02   -0.20443E-03  6324   0.334E-02    0.315E-01
RMM:   3    -0.119746224522E+04    0.58269E-02   -0.66758E-04  6165   0.183E-02    0.478E-02
RMM:   4    -0.119746222179E+04    0.23426E-04   -0.30390E-04  6394   0.108E-02    0.410E-02
RMM:   5    -0.119746216317E+04    0.58618E-04   -0.62978E-05  5727   0.582E-03    0.237E-02
RMM:   6    -0.119746215763E+04    0.55485E-05   -0.28220E-05  5753   0.349E-03    0.212E-02
RMM:   7    -0.119746216211E+04   -0.44808E-05   -0.37573E-05  5739   0.302E-03    0.178E-02
RMM:   8    -0.119746215233E+04    0.97789E-05   -0.32891E-05  6048   0.297E-03    0.110E-02
RMM:   9    -0.119746215007E+04    0.22556E-05   -0.14867E-05  5389   0.208E-03    0.760E-03
RMM:  10    -0.119746214714E+04    0.29328E-05   -0.41971E-06  4188   0.140E-03    0.361E-03
RMM:  11    -0.119746214743E+04   -0.28883E-06   -0.18404E-06  3868   0.994E-04
  53 F= -.12274961E+04 E0= -.12274236E+04  d E =-.216562E-01
 curvature:  -0.89 expect dE=-0.114E+00 dE for cont linesearch -0.113E-01
 ZBRENT: increasing intervall
 opt :   0.3475  next Energy= -1227.518785 (dE=-0.444E-01)
 bond charge predicted
       N       E                     dE             d eps       ncg     rms          rms(c)
RMM:   1    -0.119748586955E+04   -0.23722E-01   -0.34049E-02  5932   0.155E-01    0.922E-02
RMM:   2    -0.119750870889E+04   -0.22839E-01   -0.86785E-03  6346   0.672E-02    0.612E-01
RMM:   3    -0.119748655204E+04    0.22157E-01   -0.26627E-03  6206   0.365E-02    0.793E-02
[...]
RMM:   1    -0.122028866578E+04   -0.27636E-04   -0.58114E-04  5967   0.225E-02    0.133E-02
RMM:   2    -0.122028867280E+04   -0.70215E-05   -0.74362E-05  6323   0.904E-03    0.627E-03
RMM:   3    -0.122028867488E+04   -0.20820E-05   -0.20906E-05  6217   0.423E-03    0.450E-03
RMM:   4    -0.122028867485E+04    0.29380E-07   -0.16152E-06  3610   0.139E-03    0.335E-03
RMM:   5    -0.122028867497E+04   -0.11561E-06   -0.15613E-06  3576   0.115E-03    0.146E-03
RMM:   6    -0.122028867497E+04   -0.66502E-08   -0.33791E-07  3539   0.686E-04
 132 F= -.12498327E+04 E0= -.12498326E+04  d E =-.130715E-02
 curvature: -32.94 expect dE=-0.302E-02 dE for cont linesearch -0.553E-06
 trial: gam= 0.92298 g(F)=  0.917E-04 g(S)=  0.000E+00 ort = 0.210E-05 (trialstep = 0.197E+02)
 search vector abs. value=  0.320E-03
 bond charge predicted
       N       E                     dE             d eps       ncg     rms          rms(c)
RMM:   1    -0.122028855007E+04    0.12490E-03   -0.10109E-01  5963   0.299E-01    0.156E-01
RMM:   2    -0.122028961594E+04   -0.10659E-02   -0.11470E-02  6268   0.116E-01    0.729E-02
RMM:   3    -0.122028992592E+04   -0.30998E-03   -0.34549E-03  7747   0.539E-02    0.672E-02
RMM:   4    -0.122028991581E+04    0.10111E-04   -0.31902E-04  7024   0.161E-02    0.594E-02
RMM:   5    -0.122028990668E+04    0.91294E-05   -0.33467E-04  6040   0.121E-02    0.241E-02
RMM:   6    -0.122028991009E+04   -0.34108E-05   -0.12800E-04  6291   0.814E-03    0.197E-02
RMM:   7    -0.122028989587E+04    0.14218E-04   -0.23800E-05  5762   0.435E-03    0.147E-02
RMM:   8    -0.122028988680E+04    0.90768E-05   -0.42497E-05  5993   0.432E-03    0.573E-03
RMM:   9    -0.122028988685E+04   -0.54104E-07   -0.47333E-06  4714   0.220E-03
 133 F= -.12498337E+04 E0= -.12498336E+04  d E =-.107696E-02
 trial-energy change:   -0.001077  1 .order   -0.001012   -0.001848   -0.000177
 step:  21.4053(harm= 21.8248)  dis= 0.00848  next Energy= -1249.833737 (dE=-0.108E-02)
 bond charge predicted
       N       E                     dE             d eps       ncg     rms          rms(c)
RMM:   1    -0.122028989907E+04   -0.12269E-04   -0.76526E-04  5962   0.256E-02    0.146E-02
RMM:   2    -0.122028990801E+04   -0.89446E-05   -0.95005E-05  6306   0.103E-02    0.687E-03
RMM:   3    -0.122028991075E+04   -0.27422E-05   -0.28312E-05  6530   0.485E-03    0.532E-03
RMM:   4    -0.122028991063E+04    0.12721E-06   -0.19413E-06  3696   0.146E-03    0.415E-03
RMM:   5    -0.122028991072E+04   -0.94311E-07   -0.24859E-06  3792   0.132E-03    0.177E-03
RMM:   6    -0.122028991071E+04    0.14435E-07   -0.51315E-07  3539   0.788E-04
 134 F= -.12498337E+04 E0= -.12498337E+04  d E =-.108892E-02
 curvature: -35.84 expect dE=-0.206E-02 dE for cont linesearch -0.170E-05
 trial: gam= 0.45254 g(F)=  0.575E-04 g(S)=  0.000E+00 ort = 0.390E-05 (trialstep = 0.201E+02)
 search vector abs. value=  0.127E-03
 bond charge predicted
       N       E                     dE             d eps       ncg     rms          rms(c)
RMM:   1    -0.122028987002E+04    0.40704E-04   -0.44674E-02  5980   0.194E-01    0.959E-02
RMM:   2    -0.122029033840E+04   -0.46838E-03   -0.51033E-03  6271   0.768E-02    0.476E-02
RMM:   3    -0.122029047322E+04   -0.13483E-03   -0.15269E-03  7867   0.358E-02    0.475E-02
RMM:   4    -0.122029046571E+04    0.75128E-05   -0.12610E-04  6838   0.989E-03    0.413E-02
RMM:   5    -0.122029046306E+04    0.26484E-05   -0.19380E-04  6014   0.886E-03    0.175E-02
RMM:   6    -0.122029046461E+04   -0.15449E-05   -0.64711E-05  6045   0.600E-03    0.147E-02
RMM:   7    -0.122029045671E+04    0.78908E-05   -0.12377E-05  5510   0.326E-03    0.110E-02
RMM:   8    -0.122029045150E+04    0.52154E-05   -0.19886E-05  5772   0.306E-03    0.503E-03
RMM:   9    -0.122029045148E+04    0.16851E-07   -0.32241E-06  3995   0.166E-03
 135 F= -.12498343E+04 E0= -.12498343E+04  d E =-.602088E-03
 trial-energy change:   -0.000602  1 .order   -0.000644   -0.001190   -0.000098
 step:  22.5144(harm= 21.8789)  dis= 0.00552  next Energy= -1249.834349 (dE=-0.608E-03)
 bond charge predicted
       N       E                     dE             d eps       ncg     rms          rms(c)
RMM:   1    -0.122029043861E+04    0.12885E-04   -0.69746E-04  5976   0.240E-02    0.129E-02
RMM:   2    -0.122029044663E+04   -0.80156E-05   -0.86061E-05  6260   0.975E-03    0.629E-03
RMM:   3    -0.122029044895E+04   -0.23164E-05   -0.25056E-05  6508   0.464E-03    0.528E-03
RMM:   4    -0.122029044878E+04    0.16838E-06   -0.18032E-06  3678   0.140E-03    0.420E-03
RMM:   5    -0.122029044882E+04   -0.40178E-07   -0.26908E-06  3890   0.131E-03    0.184E-03
RMM:   6    -0.122029044881E+04    0.71159E-08   -0.56631E-07  3539   0.788E-04
 136 F= -.12498343E+04 E0= -.12498343E+04  d E =-.606645E-03
 curvature: -20.49 expect dE=-0.983E-03 dE for cont linesearch -0.365E-06
 trial: gam= 0.90731 g(F)=  0.480E-04 g(S)=  0.000E+00 ort =-0.150E-05 (trialstep = 0.174E+02)
 search vector abs. value=  0.150E-03
 bond charge predicted
       N       E                     dE             d eps       ncg     rms          rms(c)
RMM:   1    -0.122029031417E+04    0.13464E-03   -0.37066E-02  5989   0.177E-01    0.903E-02
RMM:   2    -0.122029071269E+04   -0.39851E-03   -0.43522E-03  6283   0.695E-02    0.435E-02
RMM:   3    -0.122029082120E+04   -0.10851E-03   -0.12465E-03  7686   0.324E-02    0.402E-02
RMM:   4    -0.122029081671E+04    0.44848E-05   -0.11683E-04  6960   0.991E-03    0.358E-02
RMM:   5    -0.122029081089E+04    0.58198E-05   -0.10260E-04  5955   0.671E-03    0.157E-02
RMM:   6    -0.122029081414E+04   -0.32509E-05   -0.49652E-05  6138   0.487E-03    0.110E-02
RMM:   7    -0.122029080971E+04    0.44327E-05   -0.11370E-05  5184   0.277E-03    0.822E-03
RMM:   8    -0.122029080708E+04    0.26276E-05   -0.10362E-05  5355   0.230E-03    0.382E-03
RMM:   9    -0.122029080696E+04    0.12323E-06   -0.20896E-06  3730   0.133E-03
 137 F= -.12498349E+04 E0= -.12498348E+04  d E =-.531878E-03
 trial-energy change:   -0.000532  1 .order   -0.000513   -0.000812   -0.000215
 step:  22.4639(harm= 23.6782)  dis= 0.00766  next Energy= -1249.834911 (dE=-0.563E-03)
 bond charge predicted
       N       E                     dE             d eps       ncg     rms          rms(c)
RMM:   1    -0.122029075460E+04    0.52480E-04   -0.31616E-03  5988   0.516E-02    0.267E-02
RMM:   2    -0.122029078914E+04   -0.34540E-04   -0.37636E-04  6283   0.204E-02    0.129E-02
RMM:   3    -0.122029079934E+04   -0.10202E-04   -0.11429E-04  7850   0.960E-03    0.121E-02
RMM:   4    -0.122029079845E+04    0.89371E-06   -0.51812E-06  4438   0.220E-03    0.101E-02
RMM:   5    -0.122029079821E+04    0.23821E-06   -0.11510E-05  5428   0.233E-03    0.409E-03
RMM:   6    -0.122029079828E+04   -0.63985E-07   -0.32448E-06  4116   0.149E-03
 138 F= -.12498349E+04 E0= -.12498348E+04  d E =-.573308E-03
 curvature: -36.55 expect dE=-0.161E-02 dE for cont linesearch -0.419E-05
 trial: gam= 0.64445 g(F)=  0.440E-04 g(S)=  0.000E+00 ort = 0.414E-05 (trialstep = 0.184E+02)
 search vector abs. value=  0.111E-03
 bond charge predicted
       N       E                     dE             d eps       ncg     rms          rms(c)
RMM:   1    -0.122029068310E+04    0.11511E-03   -0.32452E-02  5993   0.163E-01    0.776E-02
RMM:   2    -0.122029103489E+04   -0.35179E-03   -0.37539E-03  6275   0.647E-02    0.393E-02
RMM:   3    -0.122029113481E+04   -0.99921E-04   -0.11142E-03  7712   0.303E-02    0.386E-02
RMM:   4    -0.122029112984E+04    0.49740E-05   -0.92372E-05  6858   0.897E-03    0.347E-02
RMM:   5    -0.122029112521E+04    0.46297E-05   -0.13341E-04  5982   0.749E-03    0.141E-02
RMM:   6    -0.122029112878E+04   -0.35749E-05   -0.47805E-05  6113   0.502E-03    0.121E-02
RMM:   7    -0.122029112346E+04    0.53236E-05   -0.91655E-06  5101   0.270E-03    0.904E-03
RMM:   8    -0.122029111983E+04    0.36251E-05   -0.17089E-05  5734   0.275E-03    0.339E-03
RMM:   9    -0.122029111987E+04   -0.35740E-07   -0.21117E-06  3720   0.141E-03
 139 F= -.12498354E+04 E0= -.12498353E+04  d E =-.488687E-03
 trial-energy change:   -0.000489  1 .order   -0.000490   -0.000861   -0.000119
 step:  21.3902(harm= 21.3902)  dis= 0.00718  next Energy= -1249.835420 (dE=-0.499E-03)
 bond charge predicted
       N       E                     dE             d eps       ncg     rms          rms(c)
RMM:   1    -0.122029109107E+04    0.28768E-04   -0.86341E-04  5976   0.263E-02    0.132E-02
RMM:   2    -0.122029110085E+04   -0.97861E-05   -0.10383E-04  6238   0.107E-02    0.657E-03
RMM:   3    -0.122029110389E+04   -0.30387E-05   -0.32452E-05  6643   0.510E-03    0.597E-03
RMM:   4    -0.122029110365E+04    0.24357E-06   -0.16705E-06  3654   0.141E-03    0.495E-03
RMM:   5    -0.122029110368E+04   -0.34895E-07   -0.43004E-06  4810   0.155E-03    0.200E-03
RMM:   6    -0.122029110367E+04    0.16211E-07   -0.64436E-07  3540   0.876E-04
 140 F= -.12498354E+04 E0= -.12498353E+04  d E =-.499725E-03
 curvature: -25.53 expect dE=-0.984E-03 dE for cont linesearch -0.627E-09
 trial: gam= 0.87896 g(F)=  0.386E-04 g(S)=  0.000E+00 ort = 0.523E-07 (trialstep = 0.170E+02)
 search vector abs. value=  0.125E-03
 bond charge predicted
       N       E                     dE             d eps       ncg     rms          rms(c)
RMM:   1    -0.122029101808E+04    0.85601E-04   -0.29150E-02  5997   0.154E-01    0.751E-02
RMM:   2    -0.122029132947E+04   -0.31139E-03   -0.33413E-03  6282   0.608E-02    0.374E-02
RMM:   3    -0.122029141729E+04   -0.87824E-04   -0.98470E-04  7725   0.284E-02    0.345E-02
RMM:   4    -0.122029141297E+04    0.43260E-05   -0.79135E-05  6786   0.832E-03    0.305E-02
RMM:   5    -0.122029140912E+04    0.38463E-05   -0.95991E-05  5925   0.647E-03    0.120E-02
RMM:   6    -0.122029141150E+04   -0.23829E-05   -0.26187E-05  6147   0.404E-03    0.942E-03
RMM:   7    -0.122029140876E+04    0.27471E-05   -0.89866E-06  4900   0.230E-03    0.669E-03
RMM:   8    -0.122029140686E+04    0.18968E-05   -0.82624E-06  5190   0.203E-03    0.292E-03
RMM:   9    -0.122029140683E+04    0.28507E-07   -0.15720E-06  3666   0.118E-03
 141 F= -.12498358E+04 E0= -.12498357E+04  d E =-.403806E-03
 trial-energy change:   -0.000404  1 .order   -0.000402   -0.000656   -0.000148
 step:  21.9462(harm= 21.9462)  dis= 0.00806  next Energy= -1249.835844 (dE=-0.424E-03)
 bond charge predicted
       N       E                     dE             d eps       ncg     rms          rms(c)
RMM:   1    -0.122029136899E+04    0.37867E-04   -0.25054E-03  5988   0.450E-02    0.223E-02
RMM:   2    -0.122029139626E+04   -0.27267E-04   -0.29121E-04  6280   0.179E-02    0.111E-02
RMM:   3    -0.122029140458E+04   -0.83183E-05   -0.90164E-05  7673   0.845E-03    0.103E-02
RMM:   4    -0.122029140393E+04    0.64929E-06   -0.40349E-06  4197   0.198E-03    0.856E-03
RMM:   5    -0.122029140401E+04   -0.84954E-07   -0.10479E-05  5401   0.223E-03    0.335E-03
RMM:   6    -0.122029140398E+04    0.33528E-07   -0.15680E-06  3606   0.128E-03
 142 F= -.12498359E+04 E0= -.12498358E+04  d E =-.430440E-03
 curvature: -35.47 expect dE=-0.107E-02 dE for cont linesearch -0.489E-06
 trial: gam= 0.55084 g(F)=  0.301E-04 g(S)=  0.000E+00 ort = 0.131E-05 (trialstep = 0.180E+02)
 search vector abs. value=  0.694E-04
 bond charge predicted
       N       E                     dE             d eps       ncg     rms          rms(c)
RMM:   1    -0.122029147332E+04   -0.69302E-04   -0.19590E-02  5984   0.126E-01    0.586E-02
RMM:   2    -0.122029168583E+04   -0.21252E-03   -0.22488E-03  6281   0.503E-02    0.308E-02
RMM:   3    -0.122029174431E+04   -0.58476E-04   -0.65543E-04  7796   0.234E-02    0.308E-02
RMM:   4    -0.122029174022E+04    0.40942E-05   -0.49725E-05  6497   0.662E-03    0.266E-02
RMM:   5    -0.122029173968E+04    0.53608E-06   -0.10470E-04  5916   0.662E-03    0.107E-02
RMM:   6    -0.122029173999E+04   -0.31413E-06   -0.15352E-05  5876   0.379E-03    0.909E-03
RMM:   7    -0.122029173601E+04    0.39791E-05   -0.79550E-06  5255   0.238E-03    0.475E-03
RMM:   8    -0.122029173562E+04    0.39209E-06   -0.35310E-06  4223   0.149E-03
 143 F= -.12498361E+04 E0= -.12498360E+04  d E =-.273002E-03
 trial-energy change:   -0.000273  1 .order   -0.000275   -0.000554    0.000004
 step:  17.8678(harm= 17.8678)  dis= 0.00449  next Energy= -1249.836127 (dE=-0.275E-03)
 bond charge predicted
       N       E                     dE             d eps       ncg     rms          rms(c)
RMM:   1    -0.122029173510E+04    0.91363E-06   -0.88744E-07  3551   0.110E-03    0.139E-03
RMM:   2    -0.122029173507E+04    0.34299E-07   -0.24300E-07  3539   0.598E-04    0.115E-03
RMM:   3    -0.122029173505E+04    0.17782E-07   -0.14074E-07  2883   0.422E-04    0.746E-04
RMM:   4    -0.122029173506E+04   -0.88621E-08   -0.10743E-07  2571   0.365E-04    0.447E-04
RMM:   5    -0.122029173505E+04    0.80327E-08   -0.10067E-08  1462   0.285E-04    0.245E-04
RMM:   6    -0.122029173505E+04   -0.42201E-09   -0.35767E-09  1333   0.272E-04
 144 F= -.12498361E+04 E0= -.12498360E+04  d E =-.272693E-03
 curvature: -20.12 expect dE=-0.309E-03 dE for cont linesearch -0.874E-07
 trial: gam= 0.48473 g(F)=  0.154E-04 g(S)=  0.000E+00 ort = 0.549E-06 (trialstep = 0.180E+02)
 search vector abs. value=  0.322E-04
 bond charge predicted
       N       E                     dE             d eps       ncg     rms          rms(c)
RMM:   1    -0.122029194945E+04   -0.21440E-03   -0.88690E-03  5988   0.861E-02    0.403E-02
RMM:   2    -0.122029204503E+04   -0.95572E-04   -0.10204E-03  6274   0.340E-02    0.209E-02
RMM:   3    -0.122029207189E+04   -0.26862E-04   -0.30364E-04  7907   0.159E-02    0.210E-02
RMM:   4    -0.122029206981E+04    0.20788E-05   -0.20264E-05  5864   0.414E-03    0.182E-02
RMM:   5    -0.122029206953E+04    0.27682E-06   -0.45556E-05  5857   0.434E-03    0.733E-03
RMM:   6    -0.122029206970E+04   -0.16566E-06   -0.10129E-05  5604   0.266E-03    0.626E-03
RMM:   7    -0.122029206837E+04    0.13285E-05   -0.31722E-06  4036   0.152E-03    0.458E-03
RMM:   8    -0.122029206754E+04    0.82677E-06   -0.26146E-06  3938   0.123E-03
 145 F= -.12498363E+04 E0= -.12498362E+04  d E =-.166842E-03
 trial-energy change:   -0.000167  1 .order   -0.000161   -0.000281   -0.000042
 step:  20.6512(harm= 21.0796)  dis= 0.00334  next Energy= -1249.836294 (dE=-0.170E-03)
 bond charge predicted
       N       E                     dE             d eps       ncg     rms          rms(c)
RMM:   1    -0.122029209398E+04   -0.25610E-04   -0.20981E-04  5949   0.131E-02    0.693E-03
RMM:   2    -0.122029209656E+04   -0.25809E-05   -0.27364E-05  5950   0.533E-03    0.353E-03
RMM:   3    -0.122029209720E+04   -0.64138E-06   -0.67021E-06  4824   0.253E-03    0.260E-03
RMM:   4    -0.122029209723E+04   -0.29569E-07   -0.83456E-07  3544   0.108E-03    0.200E-03
RMM:   5    -0.122029209727E+04   -0.44660E-07   -0.53427E-07  3539   0.789E-04    0.903E-04
RMM:   6    -0.122029209730E+04   -0.21173E-07   -0.14392E-07  3270   0.482E-04
 146 F= -.12498363E+04 E0= -.12498362E+04  d E =-.171557E-03
 curvature: -21.29 expect dE=-0.223E-03 dE for cont linesearch -0.416E-06
 trial: gam= 0.65412 g(F)=  0.105E-04 g(S)=  0.000E+00 ort = 0.793E-06 (trialstep = 0.185E+02)
 search vector abs. value=  0.253E-04
 bond charge predicted
       N       E                     dE             d eps       ncg     rms          rms(c)
RMM:   1    -0.122029235686E+04   -0.25959E-03   -0.71420E-03  5987   0.776E-02    0.370E-02
RMM:   2    -0.122029243312E+04   -0.76257E-04   -0.81712E-04  6260   0.305E-02    0.188E-02
RMM:   3    -0.122029245511E+04   -0.21991E-04   -0.24548E-04  7734   0.143E-02    0.181E-02
RMM:   4    -0.122029245383E+04    0.12769E-05   -0.19077E-05  5752   0.405E-03    0.155E-02
RMM:   5    -0.122029245376E+04    0.72017E-07   -0.29861E-05  5816   0.357E-03    0.632E-03
RMM:   6    -0.122029245392E+04   -0.15798E-06   -0.79639E-06  5292   0.228E-03
 147 F= -.12498364E+04 E0= -.12498363E+04  d E =-.131656E-03
 trial-energy change:   -0.000132  1 .order   -0.000130   -0.000203   -0.000056
 step:  25.5658(harm= 25.5658)  dis= 0.00366  next Energy= -1249.836436 (dE=-0.141E-03)
 bond charge predicted
       N       E                     dE             d eps       ncg     rms          rms(c)
RMM:   1    -0.122029253038E+04   -0.76615E-04   -0.10556E-03  5995   0.298E-02    0.167E-02
RMM:   2    -0.122029254211E+04   -0.11738E-04   -0.13199E-04  6295   0.118E-02    0.900E-03
RMM:   3    -0.122029254587E+04   -0.37595E-05   -0.37826E-05  6115   0.553E-03    0.688E-03
RMM:   4    -0.122029254636E+04   -0.48878E-06   -0.81351E-06  5285   0.251E-03    0.571E-03
RMM:   5    -0.122029254614E+04    0.22474E-06   -0.37659E-06  4264   0.174E-03    0.251E-03
RMM:   6    -0.122029254619E+04   -0.49564E-07   -0.65912E-07  3539   0.957E-04
 148 F= -.12498364E+04 E0= -.12498363E+04  d E =-.137221E-03
 curvature: -29.42 expect dE=-0.310E-03 dE for cont linesearch -0.104E-05
 trial: gam= 1.08608 g(F)=  0.105E-04 g(S)=  0.000E+00 ort =-0.947E-06 (trialstep = 0.131E+02)
 search vector abs. value=  0.383E-04
 bond charge predicted
       N       E                     dE             d eps       ncg     rms          rms(c)
RMM:   1    -0.122029274644E+04   -0.20030E-03   -0.53006E-03  5998   0.662E-02    0.314E-02
RMM:   2    -0.122029280346E+04   -0.57022E-04   -0.60432E-04  6271   0.260E-02    0.159E-02
RMM:   3    -0.122029282032E+04   -0.16863E-04   -0.18395E-04  7672   0.122E-02    0.148E-02
RMM:   4    -0.122029281931E+04    0.10170E-05   -0.11812E-05  5248   0.329E-03    0.126E-02
RMM:   5    -0.122029281926E+04    0.48531E-07   -0.20174E-05  5715   0.303E-03    0.490E-03
RMM:   6    -0.122029281931E+04   -0.56039E-07   -0.38728E-06  4330   0.181E-03
 149 F= -.12498365E+04 E0= -.12498364E+04  d E =-.874483E-04
 trial-energy change:   -0.000087  1 .order   -0.000082   -0.000125   -0.000038
 step:  16.9351(harm= 18.9184)  dis= 0.00323  next Energy= -1249.836526 (dE=-0.931E-04)
 bond charge predicted
       N       E                     dE             d eps       ncg     rms          rms(c)
RMM:   1    -0.122029287407E+04   -0.54816E-04   -0.45080E-04  5987   0.192E-02    0.107E-02
RMM:   2    -0.122029287916E+04   -0.50825E-05   -0.56502E-05  6150   0.764E-03    0.582E-03
RMM:   3    -0.122029288089E+04   -0.17325E-05   -0.17026E-05  5853   0.363E-03    0.442E-03
RMM:   4    -0.122029288077E+04    0.11463E-06   -0.36004E-06  4284   0.175E-03    0.377E-03
RMM:   5    -0.122029288081E+04   -0.39159E-07   -0.13000E-06  3572   0.115E-03    0.146E-03
RMM:   6    -0.122029288084E+04   -0.30486E-07   -0.28969E-07  3539   0.682E-04
 150 F= -.12498365E+04 E0= -.12498364E+04  d E =-.947601E-04
 curvature: -33.62 expect dE=-0.267E-03 dE for cont linesearch -0.153E-05
 trial: gam= 0.35671 g(F)=  0.795E-05 g(S)=  0.000E+00 ort = 0.132E-05 (trialstep = 0.139E+02)
 search vector abs. value=  0.138E-04
 bond charge predicted
       N       E                     dE             d eps       ncg     rms          rms(c)
RMM:   1    -0.122029294937E+04   -0.68555E-04   -0.24652E-03  5980   0.442E-02    0.193E-02
RMM:   2    -0.122029297643E+04   -0.27058E-04   -0.28959E-04  6270   0.179E-02    0.108E-02
RMM:   3    -0.122029298377E+04   -0.73404E-05   -0.84243E-05  7445   0.840E-03    0.116E-02
RMM:   4    -0.122029298310E+04    0.66608E-06   -0.54675E-06  4523   0.229E-03    0.100E-02
RMM:   5    -0.122029298309E+04    0.90949E-08   -0.16288E-05  5607   0.261E-03    0.425E-03
RMM:   6    -0.122029298318E+04   -0.87763E-07   -0.35884E-06  4319   0.162E-03
 151 F= -.12498366E+04 E0= -.12498365E+04  d E =-.734339E-04
 trial-energy change:   -0.000073  1 .order   -0.000074   -0.000117   -0.000031
 step:  18.8334(harm= 18.8334)  dis= 0.00196  next Energy= -1249.836607 (dE=-0.793E-04)
 reached required accuracy - stopping structural energy minimisation
Thu Oct 17 04:50:24 EEST 2024
