 vasp.6.3.2 27Jun22 (build Sep 20 2022 16:10:27) complex                        
  
 executed on             LinuxIFC date 2024.11.08  21:37:18
 running on   36 total cores
 distrk:  each k-point on   36 cores,    1 groups
 distr:  one band on NCORE=   9 cores,    4 groups


--------------------------------------------------------------------------------------------------------


 INCAR:
   SYSTEM = PDOS-Calculation-SCF-run
   ISTART = 0
   ICHARG = 2
   ENCUT = 500.0
   ISMEAR = 0
   SIGMA = 0.05
   LREAL = .FALSE.
   PREC = Accurate
   EDIFF = 1E-07
   EDIFFG = -0.02
   NELM = 100
   ALGO = Normal
   IBRION = -1
   ISYM = 0
   LMAXMIX = 4
   NSW = 0
   LASPH = .TRUE
   NCORE = 9
   ISPIN = 1
   LWAVE = .FALSE.
   LCHARG = .TRUE.

 POTCAR:    PAW_PBE Zn 06Sep2000                  
 POTCAR:    PAW_PBE In_d 06Sep2000                
 POTCAR:    PAW_PBE S 06Sep2000                   
 POTCAR:    PAW_PBE Zn 06Sep2000                  
   SHA256 =  501fddbd8274dd8e9725d4f3de27861d7f1e553a7e18441bc79fed8f346e7f23 Zn/POTCAR             
   COPYR  = (c) Copyright 06Sep2000 Georg Kresse                                                    
   COPYR  = This file is part of the software VASP. Any use, copying, and all other rights are regul
   COPYR  = If you do not have a valid VASP license, you may not use, copy or distribute this file. 
   VRHFIN =Zn: d10 p2                                                                               
   LEXCH  = PE                                                                                      
   EATOM  =  1748.8345 eV,  128.5357 Ry                                                             
                                                                                                    
   TITEL  = PAW_PBE Zn 06Sep2000                                                                    
   LULTRA =        F    use ultrasoft PP ?                                                          
   IUNSCR =        1    unscreen: 0-lin 1-nonlin 2-no                                               
   RPACOR =    2.000    partial core radius                                                         
   POMASS =   65.390; ZVAL   =   12.000    mass and valenz                                          
   RCORE  =    2.300    outmost cutoff radius                                                       
   RWIGS  =    2.400; RWIGS  =    1.270    wigner-seitz radius (au A)                               
   ENMAX  =  276.723; ENMIN  =  207.542 eV                                                          
   RCLOC  =    1.828    cutoff for local pot                                                        
   LCOR   =        T    correct aug charges                                                         
   LPAW   =        T    paw PP                                                                      
   EAUG   =  575.892                                                                                
   DEXC   =    0.000                                                                                
   RMAX   =    2.347    core radius for proj-oper                                                   
   RAUG   =    1.300    factor for augmentation sphere                                              
   RDEP   =    2.324    radius for radial grids                                                     
   RDEPT  =    1.788    core radius for aug-charge                                                  
                                                                                                    
   Atomic configuration                                                                             
    9 entries                                                                                       
     n  l   j            E        occ.                                                              
     1  0  0.50     -9524.6913   2.0000                                                             
     2  0  0.50     -1158.1882   2.0000                                                             
     2  1  1.50     -1003.8506   6.0000                                                             
     3  0  0.50      -129.2194   2.0000                                                             
     3  1  1.50       -83.3890   6.0000                                                             
     3  2  2.50       -10.1410  10.0000                                                             
     4  0  0.50        -5.9785   2.0000                                                             
     4  1  0.50        -4.0817   0.0000                                                             
     4  3  2.50        -1.3606   0.0000                                                             
   Description                                                                                      
     l       E           TYP  RCUT    TYP  RCUT                                                     
     2    -10.1410010     23  2.300                                                                 
     2    -11.5015836     23  2.300                                                                 
     0     -5.9785163     23  2.300                                                                 
     0      1.1858015     23  2.300                                                                 
     1     -2.7211652     23  2.300                                                                 
     1     13.2444212     23  2.300                                                                 
  local pseudopotential read in
  partial core-charges read in
  partial kinetic energy density read in
  atomic valenz-charges read in
  non local Contribution for L=           2  read in
    real space projection operators read in
  non local Contribution for L=           2  read in
    real space projection operators read in
  non local Contribution for L=           0  read in
    real space projection operators read in
  non local Contribution for L=           0  read in
    real space projection operators read in
  non local Contribution for L=           1  read in
    real space projection operators read in
  non local Contribution for L=           1  read in
    real space projection operators read in
    PAW grid and wavefunctions read in
 
   number of l-projection  operators is LMAX  =           6
   number of lm-projection operators is LMMAX =          18
 
 POTCAR:    PAW_PBE In_d 06Sep2000                
   SHA256 =  bef4eefb233e1f458c7ef2e09e39e7114bb5a6a38c7ac356915527764429c513 In_d/POTCAR           
   COPYR  = (c) Copyright 06Sep2000 Georg Kresse                                                    
   COPYR  = This file is part of the software VASP. Any use, copying, and all other rights are regul
   COPYR  = If you do not have a valid VASP license, you may not use, copy or distribute this file. 
   VRHFIN =In: s2p1                                                                                 
   LEXCH  = PE                                                                                      
   EATOM  =  1576.8302 eV,  115.8937 Ry                                                             
                                                                                                    
   TITEL  = PAW_PBE In_d 06Sep2000                                                                  
   LULTRA =        F    use ultrasoft PP ?                                                          
   IUNSCR =        1    unscreen: 0-lin 1-nonlin 2-no                                               
   RPACOR =    2.200    partial core radius                                                         
   POMASS =  114.820; ZVAL   =   13.000    mass and valenz                                          
   RCORE  =    2.500    outmost cutoff radius                                                       
   RWIGS  =    3.170; RWIGS  =    1.677    wigner-seitz radius (au A)                               
   ENMAX  =  239.211; ENMIN  =  179.409 eV                                                          
   ICORE  =        3    local potential                                                             
   LCOR   =        T    correct aug charges                                                         
   LPAW   =        T    paw PP                                                                      
   EAUG   =  449.704                                                                                
   DEXC   =    0.000                                                                                
   RMAX   =    2.552    core radius for proj-oper                                                   
   RAUG   =    1.300    factor for augmentation sphere                                              
   RDEP   =    2.630    radius for radial grids                                                     
   RDEPT  =    2.033    core radius for aug-charge                                                  
                                                                                                    
   Atomic configuration                                                                             
   12 entries                                                                                       
     n  l   j            E        occ.                                                              
     1  0  0.50    -27747.9169   2.0000                                                             
     2  0  0.50     -4154.4438   2.0000                                                             
     2  1  1.50     -3728.4305   6.0000                                                             
     3  0  0.50      -788.3680   2.0000                                                             
     3  1  1.50      -648.9215   6.0000                                                             
     3  2  2.50      -432.5893  10.0000                                                             
     4  0  0.50      -119.6363   2.0000                                                             
     4  1  1.50       -78.1086   6.0000                                                             
     4  2  2.50       -18.6227  10.0000                                                             
     5  0  0.50        -8.2107   2.0000                                                             
     5  1  0.50        -2.5185   1.0000                                                             
     4  3  2.50        -2.7212   0.0000                                                             
   Description                                                                                      
     l       E           TYP  RCUT    TYP  RCUT                                                     
     2    -18.6226981     23  2.500                                                                 
     2     -1.3605826     23  2.500                                                                 
     0     -8.2107305     23  2.500                                                                 
     0     -6.1485975     23  2.500                                                                 
     1     -2.5184867     23  2.500                                                                 
     1      3.2427302     23  2.500                                                                 
     3     -1.3605826      7  2.500                                                                 
  local pseudopotential read in
  partial core-charges read in
  partial kinetic energy density read in
  atomic valenz-charges read in
  non local Contribution for L=           2  read in
    real space projection operators read in
  non local Contribution for L=           2  read in
    real space projection operators read in
  non local Contribution for L=           0  read in
    real space projection operators read in
  non local Contribution for L=           0  read in
    real space projection operators read in
  non local Contribution for L=           1  read in
    real space projection operators read in
  non local Contribution for L=           1  read in
    real space projection operators read in
    PAW grid and wavefunctions read in
 
   number of l-projection  operators is LMAX  =           6
   number of lm-projection operators is LMMAX =          18
 
 POTCAR:    PAW_PBE S 06Sep2000                   
   SHA256 =  0fc7481fb0695f01bdc6462160264c5c84044ae9ec85a907d398b887a2bc3132 S/POTCAR              
   COPYR  = (c) Copyright 06Sep2000 Georg Kresse                                                    
   COPYR  = This file is part of the software VASP. Any use, copying, and all other rights are regul
   COPYR  = If you do not have a valid VASP license, you may not use, copy or distribute this file. 
   VRHFIN =S : s2p4                                                                                 
   LEXCH  = PE                                                                                      
   EATOM  =   276.8230 eV,   20.3459 Ry                                                             
                                                                                                    
   TITEL  = PAW_PBE S 06Sep2000                                                                     
   LULTRA =        F    use ultrasoft PP ?                                                          
   IUNSCR =        1    unscreen: 0-lin 1-nonlin 2-no                                               
   RPACOR =    1.500    partial core radius                                                         
   POMASS =   32.066; ZVAL   =    6.000    mass and valenz                                          
   RCORE  =    1.900    outmost cutoff radius                                                       
   RWIGS  =    2.200; RWIGS  =    1.164    wigner-seitz radius (au A)                               
   ENMAX  =  258.689; ENMIN  =  194.016 eV                                                          
   ICORE  =        2    local potential                                                             
   LCOR   =        T    correct aug charges                                                         
   LPAW   =        T    paw PP                                                                      
   EAUG   =  335.092                                                                                
   DEXC   =    0.000                                                                                
   RMAX   =    1.942    core radius for proj-oper                                                   
   RAUG   =    1.300    factor for augmentation sphere                                              
   RDEP   =    1.954    radius for radial grids                                                     
   RDEPT  =    1.744    core radius for aug-charge                                                  
                                                                                                    
   Atomic configuration                                                                             
    6 entries                                                                                       
     n  l   j            E        occ.                                                              
     1  0  0.50     -2405.8406   2.0000                                                             
     2  0  0.50      -211.7007   2.0000                                                             
     2  1  1.50      -156.4958   6.0000                                                             
     3  0  0.50       -17.2562   2.0000                                                             
     3  1  0.50        -7.0085   4.0000                                                             
     3  2  1.50        -6.8029   0.0000                                                             
   Description                                                                                      
     l       E           TYP  RCUT    TYP  RCUT                                                     
     0    -17.2561641     23  1.900                                                                 
     0    -15.8743224     23  1.900                                                                 
     1     -7.0085400     23  1.900                                                                 
     1     -2.7779785     23  1.900                                                                 
     2     -6.8029130     23  1.900                                                                 
  local pseudopotential read in
  partial core-charges read in
  partial kinetic energy density read in
  atomic valenz-charges read in
  non local Contribution for L=           0  read in
    real space projection operators read in
  non local Contribution for L=           0  read in
    real space projection operators read in
  non local Contribution for L=           1  read in
    real space projection operators read in
  non local Contribution for L=           1  read in
    real space projection operators read in
    PAW grid and wavefunctions read in
 
   number of l-projection  operators is LMAX  =           4
   number of lm-projection operators is LMMAX =           8
 
  PAW_PBE Zn 06Sep2000                  :
 energy of atom  1       EATOM=-1748.8345
 kinetic energy error for atom=    0.0029 (will be added to EATOM!!)
  PAW_PBE In_d 06Sep2000                :
 energy of atom  2       EATOM=-1576.8302
 kinetic energy error for atom=    0.0036 (will be added to EATOM!!)
  PAW_PBE S 06Sep2000                   :
 energy of atom  3       EATOM= -276.8230
 kinetic energy error for atom=    0.0020 (will be added to EATOM!!)
 
 
 POSCAR: Primitive Cell
  positions in direct lattice
  velocities in cartesian coordinates
 exchange correlation table for  LEXCH =        8
   RHO(1)=    0.500       N(1)  =     2000
   RHO(2)=  100.500       N(2)  =     4000
 


--------------------------------------------------------------------------------------------------------


 ion  position               nearest neighbor table
   1  0.392  0.392  0.392-   4 2.31   4 2.31   4 2.31   6 2.54
   2  0.162  0.162  0.162-   6 2.57   6 2.57   6 2.57   7 2.72   7 2.72   7 2.72
   3  0.937  0.937  0.937-   7 2.45   5 2.49   5 2.49   5 2.49
   4  0.044  0.044  0.044-   1 2.31   1 2.31   1 2.31
   5  0.300  0.300  0.300-   3 2.49   3 2.49   3 2.49
   6  0.461  0.461  0.461-   1 2.54   2 2.57   2 2.57   2 2.57
   7  0.870  0.870  0.870-   3 2.45   2 2.72   2 2.72   2 2.72
 

IMPORTANT INFORMATION: All symmetrisations will be switched off!
NOSYMM: (Re-)initialisation of all symmetry stuff for point group C_1.


----------------------------------------------------------------------------------------

                                     Primitive cell                                     

  volume of cell :     160.5105

  direct lattice vectors                    reciprocal lattice vectors
     1.944688005  1.122766133 12.252165354     0.257110648  0.148442903  0.027206076
    -1.944688067  1.122766151 12.252165346    -0.257110647  0.148442900  0.027206075
    -0.000000014 -2.245532345 12.252165355    -0.000000001 -0.296885803  0.027206075

  length of vectors
    12.456242254 12.456242258 12.456242266     0.298129756  0.298129753  0.298129754

  position of ions in fractional coordinates (direct lattice)
     0.391750106  0.391750104  0.391750092
     0.161781926  0.161781931  0.161781971
     0.937134660  0.937134667  0.937134656
     0.043793497  0.043793498  0.043793499
     0.299593712  0.299593707  0.299593678
     0.460967032  0.460967029  0.460967008
     0.870379067  0.870379064  0.870379095

  ion indices of the primitive-cell ions
   primitive index   ion index
                 1           1
                 2           2
                 3           3
                 4           4
                 5           5
                 6           6
                 7           7

----------------------------------------------------------------------------------------

 
 
 KPOINTS: K-Spacing Value to Generate K-Mesh: 0.03

Automatic generation of k-mesh.
 Grid dimensions read from file:
 generate k-points for:   15   15   15

 Generating k-lattice:

  Cartesian coordinates                     Fractional coordinates (reciprocal lattice)
     0.017140710  0.009896194  0.001813738     0.066666667  0.000000000 -0.000000000
    -0.017140710  0.009896193  0.001813738    -0.000000000  0.066666667  0.000000000
    -0.000000000 -0.019792387  0.001813738    -0.000000000  0.000000000  0.066666667

  Length of vectors
     0.019875317  0.019875317  0.019875317

  Shift w.r.t. Gamma in fractional coordinates (k-lattice)
     0.000000000  0.000000000  0.000000000

 
 Subroutine IBZKPT returns following result:
 ===========================================
 
 Found   1688 irreducible k-points:
 
 Following reciprocal coordinates:
            Coordinates               Weight
  0.000000  0.000000  0.000000      1.000000
  0.066667  0.000000  0.000000      2.000000
 -0.000000  0.066667  0.000000      2.000000
  0.000000  0.000000  0.066667      2.000000
  0.133333 -0.000000  0.000000      2.000000
  0.000000  0.133333  0.000000      2.000000
  0.000000 -0.000000  0.133333      2.000000
  0.200000 -0.000000 -0.000000      2.000000
  0.000000  0.200000 -0.000000      2.000000
  0.000000  0.000000  0.200000      2.000000
  0.266667 -0.000000 -0.000000      2.000000
  0.000000  0.266667 -0.000000      2.000000
  0.000000  0.000000  0.266667      2.000000
  0.333333  0.000000  0.000000      2.000000
  0.000000  0.333333  0.000000      2.000000
  0.000000 -0.000000  0.333333      2.000000
  0.400000 -0.000000  0.000000      2.000000
  0.000000  0.400000 -0.000000      2.000000
  0.000000  0.000000  0.400000      2.000000
  0.466667  0.000000 -0.000000      2.000000
 -0.000000  0.466667 -0.000000      2.000000
  0.000000 -0.000000  0.466667      2.000000
  0.066667  0.066667 -0.000000      2.000000
 -0.066667 -0.000000 -0.066667      2.000000
  0.000000  0.066667  0.066667      2.000000
  0.133333  0.066667  0.000000      2.000000
 -0.133333 -0.000000 -0.066667      2.000000
  0.000000  0.133333  0.066667      2.000000
 -0.066667 -0.133333 -0.000000      2.000000
  0.066667  0.000000  0.133333      2.000000
 -0.000000 -0.066667 -0.133333      2.000000
  0.200000  0.066667  0.000000      2.000000
 -0.200000  0.000000 -0.066667      2.000000
  0.000000  0.200000  0.066667      2.000000
 -0.066667 -0.200000 -0.000000      2.000000
  0.066667 -0.000000  0.200000      2.000000
 -0.000000 -0.066667 -0.200000      2.000000
  0.266667  0.066667 -0.000000      2.000000
 -0.266667  0.000000 -0.066667      2.000000
  0.000000  0.266667  0.066667      2.000000
 -0.066667 -0.266667  0.000000      2.000000
  0.066667 -0.000000  0.266667      2.000000
 -0.000000 -0.066667 -0.266667      2.000000
  0.333333  0.066667 -0.000000      2.000000
 -0.333333  0.000000 -0.066667      2.000000
 -0.000000  0.333333  0.066667      2.000000
 -0.066667 -0.333333 -0.000000      2.000000
  0.066667  0.000000  0.333333      2.000000
 -0.000000 -0.066667 -0.333333      2.000000
  0.400000  0.066667 -0.000000      2.000000
 -0.400000  0.000000 -0.066667      2.000000
 -0.000000  0.400000  0.066667      2.000000
 -0.066667 -0.400000 -0.000000      2.000000
  0.066667  0.000000  0.400000      2.000000
 -0.000000 -0.066667 -0.400000      2.000000
  0.466667  0.066667  0.000000      2.000000
 -0.466667  0.000000 -0.066667      2.000000
  0.000000  0.466667  0.066667      2.000000
 -0.066667 -0.466667 -0.000000      2.000000
  0.066667  0.000000  0.466667      2.000000
 -0.000000 -0.066667 -0.466667      2.000000
 -0.466667  0.066667  0.000000      2.000000
  0.466667  0.000000 -0.066667      2.000000
  0.000000 -0.466667  0.066667      2.000000
 -0.066667  0.466667 -0.000000      2.000000
  0.066667 -0.000000 -0.466667      2.000000
  0.000000 -0.066667  0.466667      2.000000
 -0.400000  0.066667 -0.000000      2.000000
  0.400000  0.000000 -0.066667      2.000000
  0.000000 -0.400000  0.066667      2.000000
 -0.066667  0.400000  0.000000      2.000000
  0.066667 -0.000000 -0.400000      2.000000
  0.000000 -0.066667  0.400000      2.000000
 -0.333333  0.066667 -0.000000      2.000000
  0.333333  0.000000 -0.066667      2.000000
  0.000000 -0.333333  0.066667      2.000000
 -0.066667  0.333333  0.000000      2.000000
  0.066667  0.000000 -0.333333      2.000000
  0.000000 -0.066667  0.333333      2.000000
 -0.266667  0.066667 -0.000000      2.000000
  0.266667  0.000000 -0.066667      2.000000
  0.000000 -0.266667  0.066667      2.000000
 -0.066667  0.266667 -0.000000      2.000000
  0.066667 -0.000000 -0.266667      2.000000
  0.000000 -0.066667  0.266667      2.000000
 -0.200000  0.066667  0.000000      2.000000
  0.200000  0.000000 -0.066667      2.000000
  0.000000 -0.200000  0.066667      2.000000
 -0.066667  0.200000 -0.000000      2.000000
  0.066667 -0.000000 -0.200000      2.000000
  0.000000 -0.066667  0.200000      2.000000
 -0.133333  0.066667 -0.000000      2.000000
  0.133333 -0.000000 -0.066667      2.000000
 -0.000000 -0.133333  0.066667      2.000000
 -0.066667  0.133333  0.000000      2.000000
  0.066667 -0.000000 -0.133333      2.000000
  0.000000 -0.066667  0.133333      2.000000
 -0.066667  0.066667 -0.000000      2.000000
  0.066667  0.000000 -0.066667      2.000000
  0.000000 -0.066667  0.066667      2.000000
  0.133333  0.133333 -0.000000      2.000000
 -0.133333  0.000000 -0.133333      2.000000
  0.000000  0.133333  0.133333      2.000000
  0.200000  0.133333 -0.000000      2.000000
 -0.200000 -0.000000 -0.133333      2.000000
  0.000000  0.200000  0.133333      2.000000
 -0.133333 -0.200000 -0.000000      2.000000
  0.133333 -0.000000  0.200000      2.000000
 -0.000000 -0.133333 -0.200000      2.000000
  0.266667  0.133333  0.000000      2.000000
 -0.266667  0.000000 -0.133333      2.000000
  0.000000  0.266667  0.133333      2.000000
 -0.133333 -0.266667 -0.000000      2.000000
  0.133333 -0.000000  0.266667      2.000000
 -0.000000 -0.133333 -0.266667      2.000000
  0.333333  0.133333  0.000000      2.000000
 -0.333333  0.000000 -0.133333      2.000000
 -0.000000  0.333333  0.133333      2.000000
 -0.133333 -0.333333 -0.000000      2.000000
  0.133333 -0.000000  0.333333      2.000000
 -0.000000 -0.133333 -0.333333      2.000000
  0.400000  0.133333 -0.000000      2.000000
 -0.400000  0.000000 -0.133333      2.000000
 -0.000000  0.400000  0.133333      2.000000
 -0.133333 -0.400000  0.000000      2.000000
  0.133333 -0.000000  0.400000      2.000000
 -0.000000 -0.133333 -0.400000      2.000000
  0.466667  0.133333 -0.000000      2.000000
 -0.466667  0.000000 -0.133333      2.000000
  0.000000  0.466667  0.133333      2.000000
 -0.133333 -0.466667  0.000000      2.000000
  0.133333  0.000000  0.466667      2.000000
 -0.000000 -0.133333 -0.466667      2.000000
 -0.466667  0.133333 -0.000000      2.000000
  0.466667 -0.000000 -0.133333      2.000000
  0.000000 -0.466667  0.133333      2.000000
 -0.133333  0.466667 -0.000000      2.000000
  0.133333 -0.000000 -0.466667      2.000000
  0.000000 -0.133333  0.466667      2.000000
 -0.400000  0.133333  0.000000      2.000000
  0.400000  0.000000 -0.133333      2.000000
  0.000000 -0.400000  0.133333      2.000000
 -0.133333  0.400000 -0.000000      2.000000
  0.133333  0.000000 -0.400000      2.000000
  0.000000 -0.133333  0.400000      2.000000
 -0.333333  0.133333  0.000000      2.000000
  0.333333 -0.000000 -0.133333      2.000000
  0.000000 -0.333333  0.133333      2.000000
 -0.133333  0.333333  0.000000      2.000000
  0.133333  0.000000 -0.333333      2.000000
  0.000000 -0.133333  0.333333      2.000000
 -0.266667  0.133333  0.000000      2.000000
  0.266667 -0.000000 -0.133333      2.000000
  0.000000 -0.266667  0.133333      2.000000
 -0.133333  0.266667  0.000000      2.000000
  0.133333 -0.000000 -0.266667      2.000000
  0.000000 -0.133333  0.266667      2.000000
 -0.200000  0.133333 -0.000000      2.000000
  0.200000 -0.000000 -0.133333      2.000000
  0.000000 -0.200000  0.133333      2.000000
 -0.133333  0.200000  0.000000      2.000000
  0.133333 -0.000000 -0.200000      2.000000
  0.000000 -0.133333  0.200000      2.000000
 -0.133333  0.133333 -0.000000      2.000000
  0.133333 -0.000000 -0.133333      2.000000
 -0.000000 -0.133333  0.133333      2.000000
  0.200000  0.200000  0.000000      2.000000
 -0.200000  0.000000 -0.200000      2.000000
  0.000000  0.200000  0.200000      2.000000
  0.266667  0.200000 -0.000000      2.000000
 -0.266667  0.000000 -0.200000      2.000000
  0.000000  0.266667  0.200000      2.000000
 -0.200000 -0.266667 -0.000000      2.000000
  0.200000  0.000000  0.266667      2.000000
  0.000000 -0.200000 -0.266667      2.000000
  0.333333  0.200000 -0.000000      2.000000
 -0.333333  0.000000 -0.200000      2.000000
  0.000000  0.333333  0.200000      2.000000
 -0.200000 -0.333333  0.000000      2.000000
  0.200000  0.000000  0.333333      2.000000
 -0.000000 -0.200000 -0.333333      2.000000
  0.400000  0.200000  0.000000      2.000000
 -0.400000 -0.000000 -0.200000      2.000000
  0.000000  0.400000  0.200000      2.000000
 -0.200000 -0.400000 -0.000000      2.000000
  0.200000 -0.000000  0.400000      2.000000
 -0.000000 -0.200000 -0.400000      2.000000
  0.466667  0.200000  0.000000      2.000000
 -0.466667  0.000000 -0.200000      2.000000
  0.000000  0.466667  0.200000      2.000000
 -0.200000 -0.466667 -0.000000      2.000000
  0.200000 -0.000000  0.466667      2.000000
 -0.000000 -0.200000 -0.466667      2.000000
 -0.466667  0.200000  0.000000      2.000000
  0.466667  0.000000 -0.200000      2.000000
  0.000000 -0.466667  0.200000      2.000000
 -0.200000  0.466667  0.000000      2.000000
  0.200000  0.000000 -0.466667      2.000000
 -0.000000 -0.200000  0.466667      2.000000
 -0.400000  0.200000  0.000000      2.000000
  0.400000  0.000000 -0.200000      2.000000
  0.000000 -0.400000  0.200000      2.000000
 -0.200000  0.400000  0.000000      2.000000
  0.200000 -0.000000 -0.400000      2.000000
  0.000000 -0.200000  0.400000      2.000000
 -0.333333  0.200000 -0.000000      2.000000
  0.333333  0.000000 -0.200000      2.000000
  0.000000 -0.333333  0.200000      2.000000
 -0.200000  0.333333 -0.000000      2.000000
  0.200000  0.000000 -0.333333      2.000000
  0.000000 -0.200000  0.333333      2.000000
 -0.266667  0.200000  0.000000      2.000000
  0.266667  0.000000 -0.200000      2.000000
  0.000000 -0.266667  0.200000      2.000000
 -0.200000  0.266667 -0.000000      2.000000
  0.200000  0.000000 -0.266667      2.000000
  0.000000 -0.200000  0.266667      2.000000
 -0.200000  0.200000  0.000000      2.000000
  0.200000  0.000000 -0.200000      2.000000
 -0.000000 -0.200000  0.200000      2.000000
  0.266667  0.266667  0.000000      2.000000
 -0.266667  0.000000 -0.266667      2.000000
  0.000000  0.266667  0.266667      2.000000
  0.333333  0.266667 -0.000000      2.000000
 -0.333333  0.000000 -0.266667      2.000000
  0.000000  0.333333  0.266667      2.000000
 -0.266667 -0.333333  0.000000      2.000000
  0.266667 -0.000000  0.333333      2.000000
 -0.000000 -0.266667 -0.333333      2.000000
  0.400000  0.266667 -0.000000      2.000000
 -0.400000 -0.000000 -0.266667      2.000000
 -0.000000  0.400000  0.266667      2.000000
 -0.266667 -0.400000  0.000000      2.000000
  0.266667 -0.000000  0.400000      2.000000
 -0.000000 -0.266667 -0.400000      2.000000
  0.466667  0.266667  0.000000      2.000000
 -0.466667 -0.000000 -0.266667      2.000000
  0.000000  0.466667  0.266667      2.000000
 -0.266667 -0.466667 -0.000000      2.000000
  0.266667 -0.000000  0.466667      2.000000
 -0.000000 -0.266667 -0.466667      2.000000
 -0.466667  0.266667  0.000000      2.000000
  0.466667 -0.000000 -0.266667      2.000000
 -0.000000 -0.466667  0.266667      2.000000
 -0.266667  0.466667 -0.000000      2.000000
  0.266667 -0.000000 -0.466667      2.000000
  0.000000 -0.266667  0.466667      2.000000
 -0.400000  0.266667 -0.000000      2.000000
  0.400000 -0.000000 -0.266667      2.000000
  0.000000 -0.400000  0.266667      2.000000
 -0.266667  0.400000  0.000000      2.000000
  0.266667 -0.000000 -0.400000      2.000000
  0.000000 -0.266667  0.400000      2.000000
 -0.333333  0.266667 -0.000000      2.000000
  0.333333  0.000000 -0.266667      2.000000
  0.000000 -0.333333  0.266667      2.000000
 -0.266667  0.333333  0.000000      2.000000
  0.266667  0.000000 -0.333333      2.000000
  0.000000 -0.266667  0.333333      2.000000
 -0.266667  0.266667 -0.000000      2.000000
  0.266667 -0.000000 -0.266667      2.000000
  0.000000 -0.266667  0.266667      2.000000
  0.333333  0.333333  0.000000      2.000000
 -0.333333  0.000000 -0.333333      2.000000
  0.000000  0.333333  0.333333      2.000000
  0.400000  0.333333 -0.000000      2.000000
 -0.400000  0.000000 -0.333333      2.000000
  0.000000  0.400000  0.333333      2.000000
 -0.333333 -0.400000  0.000000      2.000000
  0.333333  0.000000  0.400000      2.000000
 -0.000000 -0.333333 -0.400000      2.000000
  0.466667  0.333333 -0.000000      2.000000
 -0.466667  0.000000 -0.333333      2.000000
  0.000000  0.466667  0.333333      2.000000
 -0.333333 -0.466667  0.000000      2.000000
  0.333333 -0.000000  0.466667      2.000000
 -0.000000 -0.333333 -0.466667      2.000000
 -0.466667  0.333333 -0.000000      2.000000
  0.466667  0.000000 -0.333333      2.000000
  0.000000 -0.466667  0.333333      2.000000
 -0.333333  0.466667  0.000000      2.000000
  0.333333  0.000000 -0.466667      2.000000
  0.000000 -0.333333  0.466667      2.000000
 -0.400000  0.333333 -0.000000      2.000000
  0.400000 -0.000000 -0.333333      2.000000
  0.000000 -0.400000  0.333333      2.000000
 -0.333333  0.400000 -0.000000      2.000000
  0.333333  0.000000 -0.400000      2.000000
  0.000000 -0.333333  0.400000      2.000000
 -0.333333  0.333333  0.000000      2.000000
  0.333333  0.000000 -0.333333      2.000000
  0.000000 -0.333333  0.333333      2.000000
  0.400000  0.400000  0.000000      2.000000
 -0.400000  0.000000 -0.400000      2.000000
  0.000000  0.400000  0.400000      2.000000
  0.466667  0.400000  0.000000      2.000000
 -0.466667 -0.000000 -0.400000      2.000000
  0.000000  0.466667  0.400000      2.000000
 -0.400000 -0.466667 -0.000000      2.000000
  0.400000 -0.000000  0.466667      2.000000
 -0.000000 -0.400000 -0.466667      2.000000
 -0.466667  0.400000 -0.000000      2.000000
  0.466667 -0.000000 -0.400000      2.000000
  0.000000 -0.466667  0.400000      2.000000
 -0.400000  0.466667  0.000000      2.000000
  0.400000 -0.000000 -0.466667      2.000000
  0.000000 -0.400000  0.466667      2.000000
 -0.400000  0.400000 -0.000000      2.000000
  0.400000 -0.000000 -0.400000      2.000000
  0.000000 -0.400000  0.400000      2.000000
  0.466667  0.466667 -0.000000      2.000000
 -0.466667  0.000000 -0.466667      2.000000
  0.000000  0.466667  0.466667      2.000000
 -0.466667  0.466667  0.000000      2.000000
  0.466667  0.000000 -0.466667      2.000000
  0.000000 -0.466667  0.466667      2.000000
  0.066667  0.066667  0.066667      2.000000
  0.133333  0.066667  0.066667      2.000000
  0.066667  0.133333  0.066667      2.000000
  0.066667  0.066667  0.133333      2.000000
  0.200000  0.066667  0.066667      2.000000
  0.066667  0.200000  0.066667      2.000000
  0.066667  0.066667  0.200000      2.000000
  0.266667  0.066667  0.066667      2.000000
  0.066667  0.266667  0.066667      2.000000
  0.066667  0.066667  0.266667      2.000000
  0.333333  0.066667  0.066667      2.000000
  0.066667  0.333333  0.066667      2.000000
  0.066667  0.066667  0.333333      2.000000
  0.400000  0.066667  0.066667      2.000000
  0.066667  0.400000  0.066667      2.000000
  0.066667  0.066667  0.400000      2.000000
  0.466667  0.066667  0.066667      2.000000
  0.066667  0.466667  0.066667      2.000000
  0.066667  0.066667  0.466667      2.000000
 -0.466667  0.066667  0.066667      2.000000
  0.066667 -0.466667  0.066667      2.000000
  0.066667  0.066667 -0.466667      2.000000
 -0.400000  0.066667  0.066667      2.000000
  0.066667 -0.400000  0.066667      2.000000
  0.066667  0.066667 -0.400000      2.000000
 -0.333333  0.066667  0.066667      2.000000
  0.066667 -0.333333  0.066667      2.000000
  0.066667  0.066667 -0.333333      2.000000
 -0.266667  0.066667  0.066667      2.000000
  0.066667 -0.266667  0.066667      2.000000
  0.066667  0.066667 -0.266667      2.000000
 -0.200000  0.066667  0.066667      2.000000
  0.066667 -0.200000  0.066667      2.000000
  0.066667  0.066667 -0.200000      2.000000
 -0.133333  0.066667  0.066667      2.000000
  0.066667 -0.133333  0.066667      2.000000
  0.066667  0.066667 -0.133333      2.000000
 -0.066667  0.066667  0.066667      2.000000
  0.066667 -0.066667  0.066667      2.000000
  0.066667  0.066667 -0.066667      2.000000
  0.133333  0.133333  0.066667      2.000000
 -0.133333 -0.066667 -0.133333      2.000000
  0.066667  0.133333  0.133333      2.000000
  0.200000  0.133333  0.066667      2.000000
 -0.200000 -0.066667 -0.133333      2.000000
  0.066667  0.200000  0.133333      2.000000
 -0.133333 -0.200000 -0.066667      2.000000
  0.133333  0.066667  0.200000      2.000000
 -0.066667 -0.133333 -0.200000      2.000000
  0.266667  0.133333  0.066667      2.000000
 -0.266667 -0.066667 -0.133333      2.000000
  0.066667  0.266667  0.133333      2.000000
 -0.133333 -0.266667 -0.066667      2.000000
  0.133333  0.066667  0.266667      2.000000
 -0.066667 -0.133333 -0.266667      2.000000
  0.333333  0.133333  0.066667      2.000000
 -0.333333 -0.066667 -0.133333      2.000000
  0.066667  0.333333  0.133333      2.000000
 -0.133333 -0.333333 -0.066667      2.000000
  0.133333  0.066667  0.333333      2.000000
 -0.066667 -0.133333 -0.333333      2.000000
  0.400000  0.133333  0.066667      2.000000
 -0.400000 -0.066667 -0.133333      2.000000
  0.066667  0.400000  0.133333      2.000000
 -0.133333 -0.400000 -0.066667      2.000000
  0.133333  0.066667  0.400000      2.000000
 -0.066667 -0.133333 -0.400000      2.000000
  0.466667  0.133333  0.066667      2.000000
 -0.466667 -0.066667 -0.133333      2.000000
  0.066667  0.466667  0.133333      2.000000
 -0.133333 -0.466667 -0.066667      2.000000
  0.133333  0.066667  0.466667      2.000000
 -0.066667 -0.133333 -0.466667      2.000000
 -0.466667  0.133333  0.066667      2.000000
  0.466667 -0.066667 -0.133333      2.000000
  0.066667 -0.466667  0.133333      2.000000
 -0.133333  0.466667 -0.066667      2.000000
  0.133333  0.066667 -0.466667      2.000000
 -0.066667 -0.133333  0.466667      2.000000
 -0.400000  0.133333  0.066667      2.000000
  0.400000 -0.066667 -0.133333      2.000000
  0.066667 -0.400000  0.133333      2.000000
 -0.133333  0.400000 -0.066667      2.000000
  0.133333  0.066667 -0.400000      2.000000
 -0.066667 -0.133333  0.400000      2.000000
 -0.333333  0.133333  0.066667      2.000000
  0.333333 -0.066667 -0.133333      2.000000
  0.066667 -0.333333  0.133333      2.000000
 -0.133333  0.333333 -0.066667      2.000000
  0.133333  0.066667 -0.333333      2.000000
 -0.066667 -0.133333  0.333333      2.000000
 -0.266667  0.133333  0.066667      2.000000
  0.266667 -0.066667 -0.133333      2.000000
  0.066667 -0.266667  0.133333      2.000000
 -0.133333  0.266667 -0.066667      2.000000
  0.133333  0.066667 -0.266667      2.000000
 -0.066667 -0.133333  0.266667      2.000000
 -0.200000  0.133333  0.066667      2.000000
  0.200000 -0.066667 -0.133333      2.000000
  0.066667 -0.200000  0.133333      2.000000
 -0.133333  0.200000 -0.066667      2.000000
  0.133333  0.066667 -0.200000      2.000000
 -0.066667 -0.133333  0.200000      2.000000
 -0.133333  0.133333  0.066667      2.000000
  0.133333 -0.066667 -0.133333      2.000000
  0.066667 -0.133333  0.133333      2.000000
 -0.133333  0.133333 -0.066667      2.000000
  0.133333  0.066667 -0.133333      2.000000
 -0.066667 -0.133333  0.133333      2.000000
 -0.066667  0.133333  0.066667      2.000000
  0.066667 -0.066667 -0.133333      2.000000
  0.066667 -0.066667  0.133333      2.000000
 -0.133333  0.066667 -0.066667      2.000000
  0.133333  0.066667 -0.066667      2.000000
 -0.066667 -0.133333  0.066667      2.000000
  0.200000  0.200000  0.066667      2.000000
 -0.200000 -0.066667 -0.200000      2.000000
  0.066667  0.200000  0.200000      2.000000
  0.266667  0.200000  0.066667      2.000000
 -0.266667 -0.066667 -0.200000      2.000000
  0.066667  0.266667  0.200000      2.000000
 -0.200000 -0.266667 -0.066667      2.000000
  0.200000  0.066667  0.266667      2.000000
 -0.066667 -0.200000 -0.266667      2.000000
  0.333333  0.200000  0.066667      2.000000
 -0.333333 -0.066667 -0.200000      2.000000
  0.066667  0.333333  0.200000      2.000000
 -0.200000 -0.333333 -0.066667      2.000000
  0.200000  0.066667  0.333333      2.000000
 -0.066667 -0.200000 -0.333333      2.000000
  0.400000  0.200000  0.066667      2.000000
 -0.400000 -0.066667 -0.200000      2.000000
  0.066667  0.400000  0.200000      2.000000
 -0.200000 -0.400000 -0.066667      2.000000
  0.200000  0.066667  0.400000      2.000000
 -0.066667 -0.200000 -0.400000      2.000000
  0.466667  0.200000  0.066667      2.000000
 -0.466667 -0.066667 -0.200000      2.000000
  0.066667  0.466667  0.200000      2.000000
 -0.200000 -0.466667 -0.066667      2.000000
  0.200000  0.066667  0.466667      2.000000
 -0.066667 -0.200000 -0.466667      2.000000
 -0.466667  0.200000  0.066667      2.000000
  0.466667 -0.066667 -0.200000      2.000000
  0.066667 -0.466667  0.200000      2.000000
 -0.200000  0.466667 -0.066667      2.000000
  0.200000  0.066667 -0.466667      2.000000
 -0.066667 -0.200000  0.466667      2.000000
 -0.400000  0.200000  0.066667      2.000000
  0.400000 -0.066667 -0.200000      2.000000
  0.066667 -0.400000  0.200000      2.000000
 -0.200000  0.400000 -0.066667      2.000000
  0.200000  0.066667 -0.400000      2.000000
 -0.066667 -0.200000  0.400000      2.000000
 -0.333333  0.200000  0.066667      2.000000
  0.333333 -0.066667 -0.200000      2.000000
  0.066667 -0.333333  0.200000      2.000000
 -0.200000  0.333333 -0.066667      2.000000
  0.200000  0.066667 -0.333333      2.000000
 -0.066667 -0.200000  0.333333      2.000000
 -0.266667  0.200000  0.066667      2.000000
  0.266667 -0.066667 -0.200000      2.000000
  0.066667 -0.266667  0.200000      2.000000
 -0.200000  0.266667 -0.066667      2.000000
  0.200000  0.066667 -0.266667      2.000000
 -0.066667 -0.200000  0.266667      2.000000
 -0.200000  0.200000  0.066667      2.000000
  0.200000 -0.066667 -0.200000      2.000000
  0.066667 -0.200000  0.200000      2.000000
 -0.200000  0.200000 -0.066667      2.000000
  0.200000  0.066667 -0.200000      2.000000
 -0.066667 -0.200000  0.200000      2.000000
 -0.133333  0.200000  0.066667      2.000000
  0.133333 -0.066667 -0.200000      2.000000
  0.066667 -0.133333  0.200000      2.000000
 -0.200000  0.133333 -0.066667      2.000000
  0.200000  0.066667 -0.133333      2.000000
 -0.066667 -0.200000  0.133333      2.000000
 -0.066667  0.200000  0.066667      2.000000
  0.066667 -0.066667 -0.200000      2.000000
  0.066667 -0.066667  0.200000      2.000000
 -0.200000  0.066667 -0.066667      2.000000
  0.200000  0.066667 -0.066667      2.000000
 -0.066667 -0.200000  0.066667      2.000000
  0.266667  0.266667  0.066667      2.000000
 -0.266667 -0.066667 -0.266667      2.000000
  0.066667  0.266667  0.266667      2.000000
  0.333333  0.266667  0.066667      2.000000
 -0.333333 -0.066667 -0.266667      2.000000
  0.066667  0.333333  0.266667      2.000000
 -0.266667 -0.333333 -0.066667      2.000000
  0.266667  0.066667  0.333333      2.000000
 -0.066667 -0.266667 -0.333333      2.000000
  0.400000  0.266667  0.066667      2.000000
 -0.400000 -0.066667 -0.266667      2.000000
  0.066667  0.400000  0.266667      2.000000
 -0.266667 -0.400000 -0.066667      2.000000
  0.266667  0.066667  0.400000      2.000000
 -0.066667 -0.266667 -0.400000      2.000000
  0.466667  0.266667  0.066667      2.000000
 -0.466667 -0.066667 -0.266667      2.000000
  0.066667  0.466667  0.266667      2.000000
 -0.266667 -0.466667 -0.066667      2.000000
  0.266667  0.066667  0.466667      2.000000
 -0.066667 -0.266667 -0.466667      2.000000
 -0.466667  0.266667  0.066667      2.000000
  0.466667 -0.066667 -0.266667      2.000000
  0.066667 -0.466667  0.266667      2.000000
 -0.266667  0.466667 -0.066667      2.000000
  0.266667  0.066667 -0.466667      2.000000
 -0.066667 -0.266667  0.466667      2.000000
 -0.400000  0.266667  0.066667      2.000000
  0.400000 -0.066667 -0.266667      2.000000
  0.066667 -0.400000  0.266667      2.000000
 -0.266667  0.400000 -0.066667      2.000000
  0.266667  0.066667 -0.400000      2.000000
 -0.066667 -0.266667  0.400000      2.000000
 -0.333333  0.266667  0.066667      2.000000
  0.333333 -0.066667 -0.266667      2.000000
  0.066667 -0.333333  0.266667      2.000000
 -0.266667  0.333333 -0.066667      2.000000
  0.266667  0.066667 -0.333333      2.000000
 -0.066667 -0.266667  0.333333      2.000000
 -0.266667  0.266667  0.066667      2.000000
  0.266667 -0.066667 -0.266667      2.000000
  0.066667 -0.266667  0.266667      2.000000
 -0.266667  0.266667 -0.066667      2.000000
  0.266667  0.066667 -0.266667      2.000000
 -0.066667 -0.266667  0.266667      2.000000
 -0.200000  0.266667  0.066667      2.000000
  0.200000 -0.066667 -0.266667      2.000000
  0.066667 -0.200000  0.266667      2.000000
 -0.266667  0.200000 -0.066667      2.000000
  0.266667  0.066667 -0.200000      2.000000
 -0.066667 -0.266667  0.200000      2.000000
 -0.133333  0.266667  0.066667      2.000000
  0.133333 -0.066667 -0.266667      2.000000
  0.066667 -0.133333  0.266667      2.000000
 -0.266667  0.133333 -0.066667      2.000000
  0.266667  0.066667 -0.133333      2.000000
 -0.066667 -0.266667  0.133333      2.000000
 -0.066667  0.266667  0.066667      2.000000
  0.066667 -0.066667 -0.266667      2.000000
  0.066667 -0.066667  0.266667      2.000000
 -0.266667  0.066667 -0.066667      2.000000
  0.266667  0.066667 -0.066667      2.000000
 -0.066667 -0.266667  0.066667      2.000000
  0.333333  0.333333  0.066667      2.000000
 -0.333333 -0.066667 -0.333333      2.000000
  0.066667  0.333333  0.333333      2.000000
  0.400000  0.333333  0.066667      2.000000
 -0.400000 -0.066667 -0.333333      2.000000
  0.066667  0.400000  0.333333      2.000000
 -0.333333 -0.400000 -0.066667      2.000000
  0.333333  0.066667  0.400000      2.000000
 -0.066667 -0.333333 -0.400000      2.000000
  0.466667  0.333333  0.066667      2.000000
 -0.466667 -0.066667 -0.333333      2.000000
  0.066667  0.466667  0.333333      2.000000
 -0.333333 -0.466667 -0.066667      2.000000
  0.333333  0.066667  0.466667      2.000000
 -0.066667 -0.333333 -0.466667      2.000000
 -0.466667  0.333333  0.066667      2.000000
  0.466667 -0.066667 -0.333333      2.000000
  0.066667 -0.466667  0.333333      2.000000
 -0.333333  0.466667 -0.066667      2.000000
  0.333333  0.066667 -0.466667      2.000000
 -0.066667 -0.333333  0.466667      2.000000
 -0.400000  0.333333  0.066667      2.000000
  0.400000 -0.066667 -0.333333      2.000000
  0.066667 -0.400000  0.333333      2.000000
 -0.333333  0.400000 -0.066667      2.000000
  0.333333  0.066667 -0.400000      2.000000
 -0.066667 -0.333333  0.400000      2.000000
 -0.333333  0.333333  0.066667      2.000000
  0.333333 -0.066667 -0.333333      2.000000
  0.066667 -0.333333  0.333333      2.000000
 -0.333333  0.333333 -0.066667      2.000000
  0.333333  0.066667 -0.333333      2.000000
 -0.066667 -0.333333  0.333333      2.000000
 -0.266667  0.333333  0.066667      2.000000
  0.266667 -0.066667 -0.333333      2.000000
  0.066667 -0.266667  0.333333      2.000000
 -0.333333  0.266667 -0.066667      2.000000
  0.333333  0.066667 -0.266667      2.000000
 -0.066667 -0.333333  0.266667      2.000000
 -0.200000  0.333333  0.066667      2.000000
  0.200000 -0.066667 -0.333333      2.000000
  0.066667 -0.200000  0.333333      2.000000
 -0.333333  0.200000 -0.066667      2.000000
  0.333333  0.066667 -0.200000      2.000000
 -0.066667 -0.333333  0.200000      2.000000
 -0.133333  0.333333  0.066667      2.000000
  0.133333 -0.066667 -0.333333      2.000000
  0.066667 -0.133333  0.333333      2.000000
 -0.333333  0.133333 -0.066667      2.000000
  0.333333  0.066667 -0.133333      2.000000
 -0.066667 -0.333333  0.133333      2.000000
 -0.066667  0.333333  0.066667      2.000000
  0.066667 -0.066667 -0.333333      2.000000
  0.066667 -0.066667  0.333333      2.000000
 -0.333333  0.066667 -0.066667      2.000000
  0.333333  0.066667 -0.066667      2.000000
 -0.066667 -0.333333  0.066667      2.000000
  0.400000  0.400000  0.066667      2.000000
 -0.400000 -0.066667 -0.400000      2.000000
  0.066667  0.400000  0.400000      2.000000
  0.466667  0.400000  0.066667      2.000000
 -0.466667 -0.066667 -0.400000      2.000000
  0.066667  0.466667  0.400000      2.000000
 -0.400000 -0.466667 -0.066667      2.000000
  0.400000  0.066667  0.466667      2.000000
 -0.066667 -0.400000 -0.466667      2.000000
 -0.466667  0.400000  0.066667      2.000000
  0.466667 -0.066667 -0.400000      2.000000
  0.066667 -0.466667  0.400000      2.000000
 -0.400000  0.466667 -0.066667      2.000000
  0.400000  0.066667 -0.466667      2.000000
 -0.066667 -0.400000  0.466667      2.000000
 -0.400000  0.400000  0.066667      2.000000
  0.400000 -0.066667 -0.400000      2.000000
  0.066667 -0.400000  0.400000      2.000000
 -0.400000  0.400000 -0.066667      2.000000
  0.400000  0.066667 -0.400000      2.000000
 -0.066667 -0.400000  0.400000      2.000000
 -0.333333  0.400000  0.066667      2.000000
  0.333333 -0.066667 -0.400000      2.000000
  0.066667 -0.333333  0.400000      2.000000
 -0.400000  0.333333 -0.066667      2.000000
  0.400000  0.066667 -0.333333      2.000000
 -0.066667 -0.400000  0.333333      2.000000
 -0.266667  0.400000  0.066667      2.000000
  0.266667 -0.066667 -0.400000      2.000000
  0.066667 -0.266667  0.400000      2.000000
 -0.400000  0.266667 -0.066667      2.000000
  0.400000  0.066667 -0.266667      2.000000
 -0.066667 -0.400000  0.266667      2.000000
 -0.200000  0.400000  0.066667      2.000000
  0.200000 -0.066667 -0.400000      2.000000
  0.066667 -0.200000  0.400000      2.000000
 -0.400000  0.200000 -0.066667      2.000000
  0.400000  0.066667 -0.200000      2.000000
 -0.066667 -0.400000  0.200000      2.000000
 -0.133333  0.400000  0.066667      2.000000
  0.133333 -0.066667 -0.400000      2.000000
  0.066667 -0.133333  0.400000      2.000000
 -0.400000  0.133333 -0.066667      2.000000
  0.400000  0.066667 -0.133333      2.000000
 -0.066667 -0.400000  0.133333      2.000000
 -0.066667  0.400000  0.066667      2.000000
  0.066667 -0.066667 -0.400000      2.000000
  0.066667 -0.066667  0.400000      2.000000
 -0.400000  0.066667 -0.066667      2.000000
  0.400000  0.066667 -0.066667      2.000000
 -0.066667 -0.400000  0.066667      2.000000
  0.466667  0.466667  0.066667      2.000000
 -0.466667 -0.066667 -0.466667      2.000000
  0.066667  0.466667  0.466667      2.000000
 -0.466667  0.466667  0.066667      2.000000
  0.466667 -0.066667 -0.466667      2.000000
  0.066667 -0.466667  0.466667      2.000000
 -0.466667  0.466667 -0.066667      2.000000
  0.466667  0.066667 -0.466667      2.000000
 -0.066667 -0.466667  0.466667      2.000000
 -0.400000  0.466667  0.066667      2.000000
  0.400000 -0.066667 -0.466667      2.000000
  0.066667 -0.400000  0.466667      2.000000
 -0.466667  0.400000 -0.066667      2.000000
  0.466667  0.066667 -0.400000      2.000000
 -0.066667 -0.466667  0.400000      2.000000
 -0.333333  0.466667  0.066667      2.000000
  0.333333 -0.066667 -0.466667      2.000000
  0.066667 -0.333333  0.466667      2.000000
 -0.466667  0.333333 -0.066667      2.000000
  0.466667  0.066667 -0.333333      2.000000
 -0.066667 -0.466667  0.333333      2.000000
 -0.266667  0.466667  0.066667      2.000000
  0.266667 -0.066667 -0.466667      2.000000
  0.066667 -0.266667  0.466667      2.000000
 -0.466667  0.266667 -0.066667      2.000000
  0.466667  0.066667 -0.266667      2.000000
 -0.066667 -0.466667  0.266667      2.000000
 -0.200000  0.466667  0.066667      2.000000
  0.200000 -0.066667 -0.466667      2.000000
  0.066667 -0.200000  0.466667      2.000000
 -0.466667  0.200000 -0.066667      2.000000
  0.466667  0.066667 -0.200000      2.000000
 -0.066667 -0.466667  0.200000      2.000000
 -0.133333  0.466667  0.066667      2.000000
  0.133333 -0.066667 -0.466667      2.000000
  0.066667 -0.133333  0.466667      2.000000
 -0.466667  0.133333 -0.066667      2.000000
  0.466667  0.066667 -0.133333      2.000000
 -0.066667 -0.466667  0.133333      2.000000
 -0.066667  0.466667  0.066667      2.000000
  0.066667 -0.066667 -0.466667      2.000000
  0.066667 -0.066667  0.466667      2.000000
 -0.466667  0.066667 -0.066667      2.000000
  0.466667  0.066667 -0.066667      2.000000
 -0.066667 -0.466667  0.066667      2.000000
 -0.466667 -0.466667  0.066667      2.000000
  0.466667 -0.066667  0.466667      2.000000
  0.066667 -0.466667 -0.466667      2.000000
 -0.400000 -0.466667  0.066667      2.000000
  0.400000 -0.066667  0.466667      2.000000
  0.066667 -0.400000 -0.466667      2.000000
  0.466667  0.400000 -0.066667      2.000000
 -0.466667  0.066667 -0.400000      2.000000
 -0.066667  0.466667  0.400000      2.000000
 -0.333333 -0.466667  0.066667      2.000000
  0.333333 -0.066667  0.466667      2.000000
  0.066667 -0.333333 -0.466667      2.000000
  0.466667  0.333333 -0.066667      2.000000
 -0.466667  0.066667 -0.333333      2.000000
 -0.066667  0.466667  0.333333      2.000000
 -0.266667 -0.466667  0.066667      2.000000
  0.266667 -0.066667  0.466667      2.000000
  0.066667 -0.266667 -0.466667      2.000000
  0.466667  0.266667 -0.066667      2.000000
 -0.466667  0.066667 -0.266667      2.000000
 -0.066667  0.466667  0.266667      2.000000
 -0.200000 -0.466667  0.066667      2.000000
  0.200000 -0.066667  0.466667      2.000000
  0.066667 -0.200000 -0.466667      2.000000
  0.466667  0.200000 -0.066667      2.000000
 -0.466667  0.066667 -0.200000      2.000000
 -0.066667  0.466667  0.200000      2.000000
 -0.133333 -0.466667  0.066667      2.000000
  0.133333 -0.066667  0.466667      2.000000
  0.066667 -0.133333 -0.466667      2.000000
  0.466667  0.133333 -0.066667      2.000000
 -0.466667  0.066667 -0.133333      2.000000
 -0.066667  0.466667  0.133333      2.000000
 -0.400000 -0.400000  0.066667      2.000000
  0.400000 -0.066667  0.400000      2.000000
  0.066667 -0.400000 -0.400000      2.000000
 -0.333333 -0.400000  0.066667      2.000000
  0.333333 -0.066667  0.400000      2.000000
  0.066667 -0.333333 -0.400000      2.000000
  0.400000  0.333333 -0.066667      2.000000
 -0.400000  0.066667 -0.333333      2.000000
 -0.066667  0.400000  0.333333      2.000000
 -0.266667 -0.400000  0.066667      2.000000
  0.266667 -0.066667  0.400000      2.000000
  0.066667 -0.266667 -0.400000      2.000000
  0.400000  0.266667 -0.066667      2.000000
 -0.400000  0.066667 -0.266667      2.000000
 -0.066667  0.400000  0.266667      2.000000
 -0.200000 -0.400000  0.066667      2.000000
  0.200000 -0.066667  0.400000      2.000000
  0.066667 -0.200000 -0.400000      2.000000
  0.400000  0.200000 -0.066667      2.000000
 -0.400000  0.066667 -0.200000      2.000000
 -0.066667  0.400000  0.200000      2.000000
 -0.133333 -0.400000  0.066667      2.000000
  0.133333 -0.066667  0.400000      2.000000
  0.066667 -0.133333 -0.400000      2.000000
  0.400000  0.133333 -0.066667      2.000000
 -0.400000  0.066667 -0.133333      2.000000
 -0.066667  0.400000  0.133333      2.000000
 -0.333333 -0.333333  0.066667      2.000000
  0.333333 -0.066667  0.333333      2.000000
  0.066667 -0.333333 -0.333333      2.000000
 -0.266667 -0.333333  0.066667      2.000000
  0.266667 -0.066667  0.333333      2.000000
  0.066667 -0.266667 -0.333333      2.000000
  0.333333  0.266667 -0.066667      2.000000
 -0.333333  0.066667 -0.266667      2.000000
 -0.066667  0.333333  0.266667      2.000000
 -0.200000 -0.333333  0.066667      2.000000
  0.200000 -0.066667  0.333333      2.000000
  0.066667 -0.200000 -0.333333      2.000000
  0.333333  0.200000 -0.066667      2.000000
 -0.333333  0.066667 -0.200000      2.000000
 -0.066667  0.333333  0.200000      2.000000
 -0.133333 -0.333333  0.066667      2.000000
  0.133333 -0.066667  0.333333      2.000000
  0.066667 -0.133333 -0.333333      2.000000
  0.333333  0.133333 -0.066667      2.000000
 -0.333333  0.066667 -0.133333      2.000000
 -0.066667  0.333333  0.133333      2.000000
 -0.266667 -0.266667  0.066667      2.000000
  0.266667 -0.066667  0.266667      2.000000
  0.066667 -0.266667 -0.266667      2.000000
 -0.200000 -0.266667  0.066667      2.000000
  0.200000 -0.066667  0.266667      2.000000
  0.066667 -0.200000 -0.266667      2.000000
  0.266667  0.200000 -0.066667      2.000000
 -0.266667  0.066667 -0.200000      2.000000
 -0.066667  0.266667  0.200000      2.000000
 -0.133333 -0.266667  0.066667      2.000000
  0.133333 -0.066667  0.266667      2.000000
  0.066667 -0.133333 -0.266667      2.000000
  0.266667  0.133333 -0.066667      2.000000
 -0.266667  0.066667 -0.133333      2.000000
 -0.066667  0.266667  0.133333      2.000000
 -0.200000 -0.200000  0.066667      2.000000
  0.200000 -0.066667  0.200000      2.000000
  0.066667 -0.200000 -0.200000      2.000000
 -0.133333 -0.200000  0.066667      2.000000
  0.133333 -0.066667  0.200000      2.000000
  0.066667 -0.133333 -0.200000      2.000000
  0.200000  0.133333 -0.066667      2.000000
 -0.200000  0.066667 -0.133333      2.000000
 -0.066667  0.200000  0.133333      2.000000
 -0.133333 -0.133333  0.066667      2.000000
  0.133333 -0.066667  0.133333      2.000000
  0.066667 -0.133333 -0.133333      2.000000
  0.133333  0.133333  0.133333      2.000000
  0.200000  0.133333  0.133333      2.000000
  0.133333  0.200000  0.133333      2.000000
  0.133333  0.133333  0.200000      2.000000
  0.266667  0.133333  0.133333      2.000000
  0.133333  0.266667  0.133333      2.000000
  0.133333  0.133333  0.266667      2.000000
  0.333333  0.133333  0.133333      2.000000
  0.133333  0.333333  0.133333      2.000000
  0.133333  0.133333  0.333333      2.000000
  0.400000  0.133333  0.133333      2.000000
  0.133333  0.400000  0.133333      2.000000
  0.133333  0.133333  0.400000      2.000000
  0.466667  0.133333  0.133333      2.000000
  0.133333  0.466667  0.133333      2.000000
  0.133333  0.133333  0.466667      2.000000
 -0.466667  0.133333  0.133333      2.000000
  0.133333 -0.466667  0.133333      2.000000
  0.133333  0.133333 -0.466667      2.000000
 -0.400000  0.133333  0.133333      2.000000
  0.133333 -0.400000  0.133333      2.000000
  0.133333  0.133333 -0.400000      2.000000
 -0.333333  0.133333  0.133333      2.000000
  0.133333 -0.333333  0.133333      2.000000
  0.133333  0.133333 -0.333333      2.000000
 -0.266667  0.133333  0.133333      2.000000
  0.133333 -0.266667  0.133333      2.000000
  0.133333  0.133333 -0.266667      2.000000
 -0.200000  0.133333  0.133333      2.000000
  0.133333 -0.200000  0.133333      2.000000
  0.133333  0.133333 -0.200000      2.000000
 -0.133333  0.133333  0.133333      2.000000
  0.133333 -0.133333  0.133333      2.000000
  0.133333  0.133333 -0.133333      2.000000
  0.200000  0.200000  0.133333      2.000000
 -0.200000 -0.133333 -0.200000      2.000000
  0.133333  0.200000  0.200000      2.000000
  0.266667  0.200000  0.133333      2.000000
 -0.266667 -0.133333 -0.200000      2.000000
  0.133333  0.266667  0.200000      2.000000
 -0.200000 -0.266667 -0.133333      2.000000
  0.200000  0.133333  0.266667      2.000000
 -0.133333 -0.200000 -0.266667      2.000000
  0.333333  0.200000  0.133333      2.000000
 -0.333333 -0.133333 -0.200000      2.000000
  0.133333  0.333333  0.200000      2.000000
 -0.200000 -0.333333 -0.133333      2.000000
  0.200000  0.133333  0.333333      2.000000
 -0.133333 -0.200000 -0.333333      2.000000
  0.400000  0.200000  0.133333      2.000000
 -0.400000 -0.133333 -0.200000      2.000000
  0.133333  0.400000  0.200000      2.000000
 -0.200000 -0.400000 -0.133333      2.000000
  0.200000  0.133333  0.400000      2.000000
 -0.133333 -0.200000 -0.400000      2.000000
  0.466667  0.200000  0.133333      2.000000
 -0.466667 -0.133333 -0.200000      2.000000
  0.133333  0.466667  0.200000      2.000000
 -0.200000 -0.466667 -0.133333      2.000000
  0.200000  0.133333  0.466667      2.000000
 -0.133333 -0.200000 -0.466667      2.000000
 -0.466667  0.200000  0.133333      2.000000
  0.466667 -0.133333 -0.200000      2.000000
  0.133333 -0.466667  0.200000      2.000000
 -0.200000  0.466667 -0.133333      2.000000
  0.200000  0.133333 -0.466667      2.000000
 -0.133333 -0.200000  0.466667      2.000000
 -0.400000  0.200000  0.133333      2.000000
  0.400000 -0.133333 -0.200000      2.000000
  0.133333 -0.400000  0.200000      2.000000
 -0.200000  0.400000 -0.133333      2.000000
  0.200000  0.133333 -0.400000      2.000000
 -0.133333 -0.200000  0.400000      2.000000
 -0.333333  0.200000  0.133333      2.000000
  0.333333 -0.133333 -0.200000      2.000000
  0.133333 -0.333333  0.200000      2.000000
 -0.200000  0.333333 -0.133333      2.000000
  0.200000  0.133333 -0.333333      2.000000
 -0.133333 -0.200000  0.333333      2.000000
 -0.266667  0.200000  0.133333      2.000000
  0.266667 -0.133333 -0.200000      2.000000
  0.133333 -0.266667  0.200000      2.000000
 -0.200000  0.266667 -0.133333      2.000000
  0.200000  0.133333 -0.266667      2.000000
 -0.133333 -0.200000  0.266667      2.000000
 -0.200000  0.200000  0.133333      2.000000
  0.200000 -0.133333 -0.200000      2.000000
  0.133333 -0.200000  0.200000      2.000000
 -0.200000  0.200000 -0.133333      2.000000
  0.200000  0.133333 -0.200000      2.000000
 -0.133333 -0.200000  0.200000      2.000000
 -0.133333  0.200000  0.133333      2.000000
  0.133333 -0.133333 -0.200000      2.000000
  0.133333 -0.133333  0.200000      2.000000
 -0.200000  0.133333 -0.133333      2.000000
  0.200000  0.133333 -0.133333      2.000000
 -0.133333 -0.200000  0.133333      2.000000
  0.266667  0.266667  0.133333      2.000000
 -0.266667 -0.133333 -0.266667      2.000000
  0.133333  0.266667  0.266667      2.000000
  0.333333  0.266667  0.133333      2.000000
 -0.333333 -0.133333 -0.266667      2.000000
  0.133333  0.333333  0.266667      2.000000
 -0.266667 -0.333333 -0.133333      2.000000
  0.266667  0.133333  0.333333      2.000000
 -0.133333 -0.266667 -0.333333      2.000000
  0.400000  0.266667  0.133333      2.000000
 -0.400000 -0.133333 -0.266667      2.000000
  0.133333  0.400000  0.266667      2.000000
 -0.266667 -0.400000 -0.133333      2.000000
  0.266667  0.133333  0.400000      2.000000
 -0.133333 -0.266667 -0.400000      2.000000
  0.466667  0.266667  0.133333      2.000000
 -0.466667 -0.133333 -0.266667      2.000000
  0.133333  0.466667  0.266667      2.000000
 -0.266667 -0.466667 -0.133333      2.000000
  0.266667  0.133333  0.466667      2.000000
 -0.133333 -0.266667 -0.466667      2.000000
 -0.466667  0.266667  0.133333      2.000000
  0.466667 -0.133333 -0.266667      2.000000
  0.133333 -0.466667  0.266667      2.000000
 -0.266667  0.466667 -0.133333      2.000000
  0.266667  0.133333 -0.466667      2.000000
 -0.133333 -0.266667  0.466667      2.000000
 -0.400000  0.266667  0.133333      2.000000
  0.400000 -0.133333 -0.266667      2.000000
  0.133333 -0.400000  0.266667      2.000000
 -0.266667  0.400000 -0.133333      2.000000
  0.266667  0.133333 -0.400000      2.000000
 -0.133333 -0.266667  0.400000      2.000000
 -0.333333  0.266667  0.133333      2.000000
  0.333333 -0.133333 -0.266667      2.000000
  0.133333 -0.333333  0.266667      2.000000
 -0.266667  0.333333 -0.133333      2.000000
  0.266667  0.133333 -0.333333      2.000000
 -0.133333 -0.266667  0.333333      2.000000
 -0.266667  0.266667  0.133333      2.000000
  0.266667 -0.133333 -0.266667      2.000000
  0.133333 -0.266667  0.266667      2.000000
 -0.266667  0.266667 -0.133333      2.000000
  0.266667  0.133333 -0.266667      2.000000
 -0.133333 -0.266667  0.266667      2.000000
 -0.200000  0.266667  0.133333      2.000000
  0.200000 -0.133333 -0.266667      2.000000
  0.133333 -0.200000  0.266667      2.000000
 -0.266667  0.200000 -0.133333      2.000000
  0.266667  0.133333 -0.200000      2.000000
 -0.133333 -0.266667  0.200000      2.000000
 -0.133333  0.266667  0.133333      2.000000
  0.133333 -0.133333 -0.266667      2.000000
  0.133333 -0.133333  0.266667      2.000000
 -0.266667  0.133333 -0.133333      2.000000
  0.266667  0.133333 -0.133333      2.000000
 -0.133333 -0.266667  0.133333      2.000000
  0.333333  0.333333  0.133333      2.000000
 -0.333333 -0.133333 -0.333333      2.000000
  0.133333  0.333333  0.333333      2.000000
  0.400000  0.333333  0.133333      2.000000
 -0.400000 -0.133333 -0.333333      2.000000
  0.133333  0.400000  0.333333      2.000000
 -0.333333 -0.400000 -0.133333      2.000000
  0.333333  0.133333  0.400000      2.000000
 -0.133333 -0.333333 -0.400000      2.000000
  0.466667  0.333333  0.133333      2.000000
 -0.466667 -0.133333 -0.333333      2.000000
  0.133333  0.466667  0.333333      2.000000
 -0.333333 -0.466667 -0.133333      2.000000
  0.333333  0.133333  0.466667      2.000000
 -0.133333 -0.333333 -0.466667      2.000000
 -0.466667  0.333333  0.133333      2.000000
  0.466667 -0.133333 -0.333333      2.000000
  0.133333 -0.466667  0.333333      2.000000
 -0.333333  0.466667 -0.133333      2.000000
  0.333333  0.133333 -0.466667      2.000000
 -0.133333 -0.333333  0.466667      2.000000
 -0.400000  0.333333  0.133333      2.000000
  0.400000 -0.133333 -0.333333      2.000000
  0.133333 -0.400000  0.333333      2.000000
 -0.333333  0.400000 -0.133333      2.000000
  0.333333  0.133333 -0.400000      2.000000
 -0.133333 -0.333333  0.400000      2.000000
 -0.333333  0.333333  0.133333      2.000000
  0.333333 -0.133333 -0.333333      2.000000
  0.133333 -0.333333  0.333333      2.000000
 -0.333333  0.333333 -0.133333      2.000000
  0.333333  0.133333 -0.333333      2.000000
 -0.133333 -0.333333  0.333333      2.000000
 -0.266667  0.333333  0.133333      2.000000
  0.266667 -0.133333 -0.333333      2.000000
  0.133333 -0.266667  0.333333      2.000000
 -0.333333  0.266667 -0.133333      2.000000
  0.333333  0.133333 -0.266667      2.000000
 -0.133333 -0.333333  0.266667      2.000000
 -0.200000  0.333333  0.133333      2.000000
  0.200000 -0.133333 -0.333333      2.000000
  0.133333 -0.200000  0.333333      2.000000
 -0.333333  0.200000 -0.133333      2.000000
  0.333333  0.133333 -0.200000      2.000000
 -0.133333 -0.333333  0.200000      2.000000
 -0.133333  0.333333  0.133333      2.000000
  0.133333 -0.133333 -0.333333      2.000000
  0.133333 -0.133333  0.333333      2.000000
 -0.333333  0.133333 -0.133333      2.000000
  0.333333  0.133333 -0.133333      2.000000
 -0.133333 -0.333333  0.133333      2.000000
  0.400000  0.400000  0.133333      2.000000
 -0.400000 -0.133333 -0.400000      2.000000
  0.133333  0.400000  0.400000      2.000000
  0.466667  0.400000  0.133333      2.000000
 -0.466667 -0.133333 -0.400000      2.000000
  0.133333  0.466667  0.400000      2.000000
 -0.400000 -0.466667 -0.133333      2.000000
  0.400000  0.133333  0.466667      2.000000
 -0.133333 -0.400000 -0.466667      2.000000
 -0.466667  0.400000  0.133333      2.000000
  0.466667 -0.133333 -0.400000      2.000000
  0.133333 -0.466667  0.400000      2.000000
 -0.400000  0.466667 -0.133333      2.000000
  0.400000  0.133333 -0.466667      2.000000
 -0.133333 -0.400000  0.466667      2.000000
 -0.400000  0.400000  0.133333      2.000000
  0.400000 -0.133333 -0.400000      2.000000
  0.133333 -0.400000  0.400000      2.000000
 -0.400000  0.400000 -0.133333      2.000000
  0.400000  0.133333 -0.400000      2.000000
 -0.133333 -0.400000  0.400000      2.000000
 -0.333333  0.400000  0.133333      2.000000
  0.333333 -0.133333 -0.400000      2.000000
  0.133333 -0.333333  0.400000      2.000000
 -0.400000  0.333333 -0.133333      2.000000
  0.400000  0.133333 -0.333333      2.000000
 -0.133333 -0.400000  0.333333      2.000000
 -0.266667  0.400000  0.133333      2.000000
  0.266667 -0.133333 -0.400000      2.000000
  0.133333 -0.266667  0.400000      2.000000
 -0.400000  0.266667 -0.133333      2.000000
  0.400000  0.133333 -0.266667      2.000000
 -0.133333 -0.400000  0.266667      2.000000
 -0.200000  0.400000  0.133333      2.000000
  0.200000 -0.133333 -0.400000      2.000000
  0.133333 -0.200000  0.400000      2.000000
 -0.400000  0.200000 -0.133333      2.000000
  0.400000  0.133333 -0.200000      2.000000
 -0.133333 -0.400000  0.200000      2.000000
 -0.133333  0.400000  0.133333      2.000000
  0.133333 -0.133333 -0.400000      2.000000
  0.133333 -0.133333  0.400000      2.000000
 -0.400000  0.133333 -0.133333      2.000000
  0.400000  0.133333 -0.133333      2.000000
 -0.133333 -0.400000  0.133333      2.000000
  0.466667  0.466667  0.133333      2.000000
 -0.466667 -0.133333 -0.466667      2.000000
  0.133333  0.466667  0.466667      2.000000
 -0.466667  0.466667  0.133333      2.000000
  0.466667 -0.133333 -0.466667      2.000000
  0.133333 -0.466667  0.466667      2.000000
 -0.466667  0.466667 -0.133333      2.000000
  0.466667  0.133333 -0.466667      2.000000
 -0.133333 -0.466667  0.466667      2.000000
 -0.400000  0.466667  0.133333      2.000000
  0.400000 -0.133333 -0.466667      2.000000
  0.133333 -0.400000  0.466667      2.000000
 -0.466667  0.400000 -0.133333      2.000000
  0.466667  0.133333 -0.400000      2.000000
 -0.133333 -0.466667  0.400000      2.000000
 -0.333333  0.466667  0.133333      2.000000
  0.333333 -0.133333 -0.466667      2.000000
  0.133333 -0.333333  0.466667      2.000000
 -0.466667  0.333333 -0.133333      2.000000
  0.466667  0.133333 -0.333333      2.000000
 -0.133333 -0.466667  0.333333      2.000000
 -0.266667  0.466667  0.133333      2.000000
  0.266667 -0.133333 -0.466667      2.000000
  0.133333 -0.266667  0.466667      2.000000
 -0.466667  0.266667 -0.133333      2.000000
  0.466667  0.133333 -0.266667      2.000000
 -0.133333 -0.466667  0.266667      2.000000
 -0.200000  0.466667  0.133333      2.000000
  0.200000 -0.133333 -0.466667      2.000000
  0.133333 -0.200000  0.466667      2.000000
 -0.466667  0.200000 -0.133333      2.000000
  0.466667  0.133333 -0.200000      2.000000
 -0.133333 -0.466667  0.200000      2.000000
 -0.133333  0.466667  0.133333      2.000000
  0.133333 -0.133333 -0.466667      2.000000
  0.133333 -0.133333  0.466667      2.000000
 -0.466667  0.133333 -0.133333      2.000000
  0.466667  0.133333 -0.133333      2.000000
 -0.133333 -0.466667  0.133333      2.000000
 -0.466667 -0.466667  0.133333      2.000000
  0.466667 -0.133333  0.466667      2.000000
  0.133333 -0.466667 -0.466667      2.000000
 -0.400000 -0.466667  0.133333      2.000000
  0.400000 -0.133333  0.466667      2.000000
  0.133333 -0.400000 -0.466667      2.000000
  0.466667  0.400000 -0.133333      2.000000
 -0.466667  0.133333 -0.400000      2.000000
 -0.133333  0.466667  0.400000      2.000000
 -0.333333 -0.466667  0.133333      2.000000
  0.333333 -0.133333  0.466667      2.000000
  0.133333 -0.333333 -0.466667      2.000000
  0.466667  0.333333 -0.133333      2.000000
 -0.466667  0.133333 -0.333333      2.000000
 -0.133333  0.466667  0.333333      2.000000
 -0.266667 -0.466667  0.133333      2.000000
  0.266667 -0.133333  0.466667      2.000000
  0.133333 -0.266667 -0.466667      2.000000
  0.466667  0.266667 -0.133333      2.000000
 -0.466667  0.133333 -0.266667      2.000000
 -0.133333  0.466667  0.266667      2.000000
 -0.200000 -0.466667  0.133333      2.000000
  0.200000 -0.133333  0.466667      2.000000
  0.133333 -0.200000 -0.466667      2.000000
  0.466667  0.200000 -0.133333      2.000000
 -0.466667  0.133333 -0.200000      2.000000
 -0.133333  0.466667  0.200000      2.000000
 -0.400000 -0.400000  0.133333      2.000000
  0.400000 -0.133333  0.400000      2.000000
  0.133333 -0.400000 -0.400000      2.000000
 -0.333333 -0.400000  0.133333      2.000000
  0.333333 -0.133333  0.400000      2.000000
  0.133333 -0.333333 -0.400000      2.000000
  0.400000  0.333333 -0.133333      2.000000
 -0.400000  0.133333 -0.333333      2.000000
 -0.133333  0.400000  0.333333      2.000000
 -0.266667 -0.400000  0.133333      2.000000
  0.266667 -0.133333  0.400000      2.000000
  0.133333 -0.266667 -0.400000      2.000000
  0.400000  0.266667 -0.133333      2.000000
 -0.400000  0.133333 -0.266667      2.000000
 -0.133333  0.400000  0.266667      2.000000
 -0.200000 -0.400000  0.133333      2.000000
  0.200000 -0.133333  0.400000      2.000000
  0.133333 -0.200000 -0.400000      2.000000
  0.400000  0.200000 -0.133333      2.000000
 -0.400000  0.133333 -0.200000      2.000000
 -0.133333  0.400000  0.200000      2.000000
 -0.333333 -0.333333  0.133333      2.000000
  0.333333 -0.133333  0.333333      2.000000
  0.133333 -0.333333 -0.333333      2.000000
 -0.266667 -0.333333  0.133333      2.000000
  0.266667 -0.133333  0.333333      2.000000
  0.133333 -0.266667 -0.333333      2.000000
  0.333333  0.266667 -0.133333      2.000000
 -0.333333  0.133333 -0.266667      2.000000
 -0.133333  0.333333  0.266667      2.000000
 -0.200000 -0.333333  0.133333      2.000000
  0.200000 -0.133333  0.333333      2.000000
  0.133333 -0.200000 -0.333333      2.000000
  0.333333  0.200000 -0.133333      2.000000
 -0.333333  0.133333 -0.200000      2.000000
 -0.133333  0.333333  0.200000      2.000000
 -0.266667 -0.266667  0.133333      2.000000
  0.266667 -0.133333  0.266667      2.000000
  0.133333 -0.266667 -0.266667      2.000000
 -0.200000 -0.266667  0.133333      2.000000
  0.200000 -0.133333  0.266667      2.000000
  0.133333 -0.200000 -0.266667      2.000000
  0.266667  0.200000 -0.133333      2.000000
 -0.266667  0.133333 -0.200000      2.000000
 -0.133333  0.266667  0.200000      2.000000
 -0.200000 -0.200000  0.133333      2.000000
  0.200000 -0.133333  0.200000      2.000000
  0.133333 -0.200000 -0.200000      2.000000
  0.200000  0.200000  0.200000      2.000000
  0.266667  0.200000  0.200000      2.000000
  0.200000  0.266667  0.200000      2.000000
  0.200000  0.200000  0.266667      2.000000
  0.333333  0.200000  0.200000      2.000000
  0.200000  0.333333  0.200000      2.000000
  0.200000  0.200000  0.333333      2.000000
  0.400000  0.200000  0.200000      2.000000
  0.200000  0.400000  0.200000      2.000000
  0.200000  0.200000  0.400000      2.000000
  0.466667  0.200000  0.200000      2.000000
  0.200000  0.466667  0.200000      2.000000
  0.200000  0.200000  0.466667      2.000000
 -0.466667  0.200000  0.200000      2.000000
  0.200000 -0.466667  0.200000      2.000000
  0.200000  0.200000 -0.466667      2.000000
 -0.400000  0.200000  0.200000      2.000000
  0.200000 -0.400000  0.200000      2.000000
  0.200000  0.200000 -0.400000      2.000000
 -0.333333  0.200000  0.200000      2.000000
  0.200000 -0.333333  0.200000      2.000000
  0.200000  0.200000 -0.333333      2.000000
 -0.266667  0.200000  0.200000      2.000000
  0.200000 -0.266667  0.200000      2.000000
  0.200000  0.200000 -0.266667      2.000000
 -0.200000  0.200000  0.200000      2.000000
  0.200000 -0.200000  0.200000      2.000000
  0.200000  0.200000 -0.200000      2.000000
  0.266667  0.266667  0.200000      2.000000
 -0.266667 -0.200000 -0.266667      2.000000
  0.200000  0.266667  0.266667      2.000000
  0.333333  0.266667  0.200000      2.000000
 -0.333333 -0.200000 -0.266667      2.000000
  0.200000  0.333333  0.266667      2.000000
 -0.266667 -0.333333 -0.200000      2.000000
  0.266667  0.200000  0.333333      2.000000
 -0.200000 -0.266667 -0.333333      2.000000
  0.400000  0.266667  0.200000      2.000000
 -0.400000 -0.200000 -0.266667      2.000000
  0.200000  0.400000  0.266667      2.000000
 -0.266667 -0.400000 -0.200000      2.000000
  0.266667  0.200000  0.400000      2.000000
 -0.200000 -0.266667 -0.400000      2.000000
  0.466667  0.266667  0.200000      2.000000
 -0.466667 -0.200000 -0.266667      2.000000
  0.200000  0.466667  0.266667      2.000000
 -0.266667 -0.466667 -0.200000      2.000000
  0.266667  0.200000  0.466667      2.000000
 -0.200000 -0.266667 -0.466667      2.000000
 -0.466667  0.266667  0.200000      2.000000
  0.466667 -0.200000 -0.266667      2.000000
  0.200000 -0.466667  0.266667      2.000000
 -0.266667  0.466667 -0.200000      2.000000
  0.266667  0.200000 -0.466667      2.000000
 -0.200000 -0.266667  0.466667      2.000000
 -0.400000  0.266667  0.200000      2.000000
  0.400000 -0.200000 -0.266667      2.000000
  0.200000 -0.400000  0.266667      2.000000
 -0.266667  0.400000 -0.200000      2.000000
  0.266667  0.200000 -0.400000      2.000000
 -0.200000 -0.266667  0.400000      2.000000
 -0.333333  0.266667  0.200000      2.000000
  0.333333 -0.200000 -0.266667      2.000000
  0.200000 -0.333333  0.266667      2.000000
 -0.266667  0.333333 -0.200000      2.000000
  0.266667  0.200000 -0.333333      2.000000
 -0.200000 -0.266667  0.333333      2.000000
 -0.266667  0.266667  0.200000      2.000000
  0.266667 -0.200000 -0.266667      2.000000
  0.200000 -0.266667  0.266667      2.000000
 -0.266667  0.266667 -0.200000      2.000000
  0.266667  0.200000 -0.266667      2.000000
 -0.200000 -0.266667  0.266667      2.000000
 -0.200000  0.266667  0.200000      2.000000
  0.200000 -0.200000 -0.266667      2.000000
  0.200000 -0.200000  0.266667      2.000000
 -0.266667  0.200000 -0.200000      2.000000
  0.266667  0.200000 -0.200000      2.000000
 -0.200000 -0.266667  0.200000      2.000000
  0.333333  0.333333  0.200000      2.000000
 -0.333333 -0.200000 -0.333333      2.000000
  0.200000  0.333333  0.333333      2.000000
  0.400000  0.333333  0.200000      2.000000
 -0.400000 -0.200000 -0.333333      2.000000
  0.200000  0.400000  0.333333      2.000000
 -0.333333 -0.400000 -0.200000      2.000000
  0.333333  0.200000  0.400000      2.000000
 -0.200000 -0.333333 -0.400000      2.000000
  0.466667  0.333333  0.200000      2.000000
 -0.466667 -0.200000 -0.333333      2.000000
  0.200000  0.466667  0.333333      2.000000
 -0.333333 -0.466667 -0.200000      2.000000
  0.333333  0.200000  0.466667      2.000000
 -0.200000 -0.333333 -0.466667      2.000000
 -0.466667  0.333333  0.200000      2.000000
  0.466667 -0.200000 -0.333333      2.000000
  0.200000 -0.466667  0.333333      2.000000
 -0.333333  0.466667 -0.200000      2.000000
  0.333333  0.200000 -0.466667      2.000000
 -0.200000 -0.333333  0.466667      2.000000
 -0.400000  0.333333  0.200000      2.000000
  0.400000 -0.200000 -0.333333      2.000000
  0.200000 -0.400000  0.333333      2.000000
 -0.333333  0.400000 -0.200000      2.000000
  0.333333  0.200000 -0.400000      2.000000
 -0.200000 -0.333333  0.400000      2.000000
 -0.333333  0.333333  0.200000      2.000000
  0.333333 -0.200000 -0.333333      2.000000
  0.200000 -0.333333  0.333333      2.000000
 -0.333333  0.333333 -0.200000      2.000000
  0.333333  0.200000 -0.333333      2.000000
 -0.200000 -0.333333  0.333333      2.000000
 -0.266667  0.333333  0.200000      2.000000
  0.266667 -0.200000 -0.333333      2.000000
  0.200000 -0.266667  0.333333      2.000000
 -0.333333  0.266667 -0.200000      2.000000
  0.333333  0.200000 -0.266667      2.000000
 -0.200000 -0.333333  0.266667      2.000000
 -0.200000  0.333333  0.200000      2.000000
[...]
      6     -10.4549      2.00000
      7     -10.3549      2.00000
      8     -10.3145      2.00000
      9     -10.2371      2.00000
     10     -10.2222      2.00000
     11      -9.5888      2.00000
     12      -9.0921      2.00000
     13      -8.0664      2.00000
     14      -7.4061      2.00000
     15      -2.0945      2.00000
     16      -1.6399      2.00000
     17      -1.6065      2.00000
     18      -1.2340      2.00000
     19      -1.2005      2.00000
     20      -1.1492      2.00000
     21      -0.2105      2.00000
     22       1.1014      2.00000
     23       1.5853      2.00000
     24       1.7510      2.00000
     25       2.0114      2.00000
     26       2.2769      2.00000
     27       2.3700      2.00000
     28       2.9808      2.00000
     29       3.5793      2.00000
     30       3.6646      2.00000
     31       4.1877      2.00000
     32       5.6879      0.00000
     33       6.3819      0.00000
     34       7.7940      0.00000
     35       8.0374      0.00000
     36       8.4687      0.00000
     37       8.9060      0.00000
     38       9.1413      0.00000
     39       9.8995      0.00000
     40       9.9366      0.00000

 k-point  1684 :       0.4000   -0.4667   -0.4667
  band No.  band energies     occupation 
      1     -11.1215      2.00000
      2     -10.9353      2.00000
      3     -10.8837      2.00000
      4     -10.7376      2.00000
      5     -10.7231      2.00000
      6     -10.4549      2.00000
      7     -10.3549      2.00000
      8     -10.3145      2.00000
      9     -10.2371      2.00000
     10     -10.2222      2.00000
     11      -9.5888      2.00000
     12      -9.0921      2.00000
     13      -8.0664      2.00000
     14      -7.4061      2.00000
     15      -2.0945      2.00000
     16      -1.6399      2.00000
     17      -1.6065      2.00000
     18      -1.2340      2.00000
     19      -1.2005      2.00000
     20      -1.1492      2.00000
     21      -0.2105      2.00000
     22       1.1014      2.00000
     23       1.5853      2.00000
     24       1.7510      2.00000
     25       2.0114      2.00000
     26       2.2769      2.00000
     27       2.3700      2.00000
     28       2.9808      2.00000
     29       3.5793      2.00000
     30       3.6646      2.00000
     31       4.1877      2.00000
     32       5.6879      0.00000
     33       6.3819      0.00000
     34       7.7940      0.00000
     35       8.0374      0.00000
     36       8.4687      0.00000
     37       8.9060      0.00000
     38       9.1413      0.00000
     39       9.8995      0.00000
     40       9.9366      0.00000

 k-point  1685 :       0.4667    0.4667    0.4667
  band No.  band energies     occupation 
      1     -11.0954      2.00000
      2     -10.8992      2.00000
      3     -10.8992      2.00000
      4     -10.7244      2.00000
      5     -10.7244      2.00000
      6     -10.3679      2.00000
      7     -10.3679      2.00000
      8     -10.3555      2.00000
      9     -10.2249      2.00000
     10     -10.2249      2.00000
     11      -9.7932      2.00000
     12      -9.2282      2.00000
     13      -8.2184      2.00000
     14      -7.5012      2.00000
     15      -2.1427      2.00000
     16      -1.6428      2.00000
     17      -1.6428      2.00000
     18      -1.2002      2.00000
     19      -1.2002      2.00000
     20      -1.1720      2.00000
     21      -0.1910      2.00000
     22       1.9621      2.00000
     23       1.9621      2.00000
     24       2.0471      2.00000
     25       2.6266      2.00000
     26       2.6266      2.00000
     27       2.8855      2.00000
     28       2.8855      2.00000
     29       3.0438      2.00000
     30       4.4208      1.99993
     31       4.4208      1.99993
     32       5.3370      0.00000
     33       5.9534      0.00000
     34       7.1610      0.00000
     35       7.5844      0.00000
     36       8.8543      0.00000
     37       8.8543      0.00000
     38       8.9781      0.00000
     39       9.5348      0.00000
     40       9.5348      0.00000

 k-point  1686 :      -0.4667    0.4667    0.4667
  band No.  band energies     occupation 
      1     -11.1008      2.00000
      2     -10.9112      2.00000
      3     -10.8951      2.00000
      4     -10.7285      2.00000
      5     -10.7241      2.00000
      6     -10.3967      2.00000
      7     -10.3643      2.00000
      8     -10.3387      2.00000
      9     -10.2289      2.00000
     10     -10.2244      2.00000
     11      -9.7387      2.00000
     12      -9.1941      2.00000
     13      -8.1775      2.00000
     14      -7.4769      2.00000
     15      -2.1290      2.00000
     16      -1.6427      2.00000
     17      -1.6334      2.00000
     18      -1.2111      2.00000
     19      -1.2004      2.00000
     20      -1.1608      2.00000
     21      -0.1920      2.00000
     22       1.6741      2.00000
     23       1.9053      2.00000
     24       2.0177      2.00000
     25       2.2744      2.00000
     26       2.5086      2.00000
     27       2.7416      2.00000
     28       2.9358      2.00000
     29       3.3120      2.00000
     30       4.1669      2.00000
     31       4.3577      2.00000
     32       5.4663      0.00000
     33       6.0986      0.00000
     34       7.3789      0.00000
     35       7.7944      0.00000
     36       8.5521      0.00000
     37       8.9344      0.00000
     38       9.0398      0.00000
     39       9.6001      0.00000
     40       9.6415      0.00000

 k-point  1687 :       0.4667   -0.4667    0.4667
  band No.  band energies     occupation 
      1     -11.1008      2.00000
      2     -10.9112      2.00000
      3     -10.8951      2.00000
      4     -10.7285      2.00000
      5     -10.7241      2.00000
      6     -10.3967      2.00000
      7     -10.3643      2.00000
      8     -10.3387      2.00000
      9     -10.2289      2.00000
     10     -10.2244      2.00000
     11      -9.7387      2.00000
     12      -9.1941      2.00000
     13      -8.1775      2.00000
     14      -7.4769      2.00000
     15      -2.1290      2.00000
     16      -1.6427      2.00000
     17      -1.6334      2.00000
     18      -1.2111      2.00000
     19      -1.2004      2.00000
     20      -1.1608      2.00000
     21      -0.1920      2.00000
     22       1.6741      2.00000
     23       1.9053      2.00000
     24       2.0177      2.00000
     25       2.2744      2.00000
     26       2.5086      2.00000
     27       2.7416      2.00000
     28       2.9358      2.00000
     29       3.3120      2.00000
     30       4.1669      2.00000
     31       4.3577      2.00000
     32       5.4663      0.00000
     33       6.0986      0.00000
     34       7.3789      0.00000
     35       7.7944      0.00000
     36       8.5521      0.00000
     37       8.9344      0.00000
     38       9.0398      0.00000
     39       9.6001      0.00000
     40       9.6415      0.00000

 k-point  1688 :       0.4667    0.4667   -0.4667
  band No.  band energies     occupation 
      1     -11.1008      2.00000
      2     -10.9112      2.00000
      3     -10.8951      2.00000
      4     -10.7285      2.00000
      5     -10.7241      2.00000
      6     -10.3967      2.00000
      7     -10.3643      2.00000
      8     -10.3387      2.00000
      9     -10.2289      2.00000
     10     -10.2244      2.00000
     11      -9.7387      2.00000
     12      -9.1941      2.00000
     13      -8.1775      2.00000
     14      -7.4769      2.00000
     15      -2.1290      2.00000
     16      -1.6427      2.00000
     17      -1.6334      2.00000
     18      -1.2111      2.00000
     19      -1.2004      2.00000
     20      -1.1608      2.00000
     21      -0.1920      2.00000
     22       1.6741      2.00000
     23       1.9053      2.00000
     24       2.0177      2.00000
     25       2.2744      2.00000
     26       2.5086      2.00000
     27       2.7416      2.00000
     28       2.9358      2.00000
     29       3.3120      2.00000
     30       4.1669      2.00000
     31       4.3577      2.00000
     32       5.4663      0.00000
     33       6.0986      0.00000
     34       7.3789      0.00000
     35       7.7944      0.00000
     36       8.5521      0.00000
     37       8.9344      0.00000
     38       9.0398      0.00000
     39       9.6001      0.00000
     40       9.6415      0.00000


--------------------------------------------------------------------------------------------------------


 soft charge-density along one line, spin component           1
         0         1         2         3         4         5         6         7         8         9
 total charge-density along one line
 
 pseudopotential strength for first ion, spin component:           1
 -7.658  -0.000   0.000   0.000   0.000  -0.000   0.002   0.000  -0.000   0.000  -8.143  -0.000   0.000   0.000   0.000  -0.000
  0.000   0.000  -7.711  -0.000   0.000  -0.000  -0.000   0.000   0.002  -0.000   0.000   0.000  -8.193  -0.000   0.000  -0.000
  0.000  -0.000   0.000  -0.000  -7.729  -0.000   0.000   0.000   0.000  -0.000   0.000  -0.000   0.000  -0.000  -8.210  -0.000
  0.002   0.000  -0.000   0.000   0.000   0.000  -7.711  -0.000   0.000   0.000   0.002   0.000  -0.000   0.000   0.000   0.000
 -0.000   0.000   0.002  -0.000   0.000  -0.000   0.000   0.000  -7.658  -0.000  -0.000   0.000   0.002  -0.000   0.000  -0.000
 -8.143  -0.000   0.000   0.000   0.000  -0.000   0.002   0.000  -0.000   0.000  -8.545  -0.000   0.000   0.000   0.000  -0.000
  0.000   0.000  -8.193  -0.000   0.000  -0.000  -0.000   0.000   0.002  -0.000   0.000   0.000  -8.592  -0.000   0.000  -0.000
  0.000  -0.000   0.000  -0.000  -8.210  -0.000   0.000   0.000   0.000  -0.000   0.000  -0.000   0.000  -0.000  -8.609  -0.000
  0.002   0.000  -0.000   0.000   0.000   0.000  -8.193  -0.000   0.000   0.000   0.002   0.000  -0.000   0.000   0.000   0.000
 -0.000   0.000   0.002  -0.000   0.000  -0.000   0.000   0.000  -8.143  -0.000  -0.000   0.000   0.002  -0.000   0.000  -0.000
  0.000   0.000  -0.000   0.000  -0.001   0.000  -0.000   0.000   0.000   0.000   0.000   0.000  -0.000   0.000  -0.000   0.000
  0.000   0.000  -0.000   0.000  -0.002   0.000  -0.000   0.000   0.000   0.000   0.000   0.000  -0.000   0.000  -0.001   0.000
 -0.000   0.000   0.010  -0.000   0.000   0.000  -0.000   0.000  -0.002   0.000  -0.000   0.000   0.009  -0.000   0.000   0.000
 -0.000   0.000  -0.000  -0.000   0.009  -0.000  -0.000   0.000   0.000  -0.000  -0.000   0.000  -0.000  -0.000   0.009  -0.000
 -0.002  -0.000  -0.000   0.000   0.000  -0.000   0.010  -0.000  -0.000   0.000  -0.002  -0.000  -0.000   0.000   0.000  -0.000
 -0.000   0.000   0.010  -0.000   0.000   0.000  -0.000   0.000  -0.001  -0.000  -0.000   0.000   0.010  -0.000   0.000   0.000
 -0.000   0.000  -0.000  -0.000   0.010  -0.000  -0.000   0.000   0.000  -0.000  -0.000   0.000  -0.000  -0.000   0.010  -0.000
 -0.001  -0.000  -0.000   0.000   0.000  -0.000   0.010  -0.000  -0.000   0.000  -0.001  -0.000  -0.000   0.000   0.000  -0.000
 total augmentation occupancy for first ion, spin component:           1
  3.804   0.000   0.000  -0.480   0.000  -1.814  -0.000  -0.000   0.487  -0.000  -0.000   0.000  -0.000   0.000  -0.665   0.000
  0.000   2.860  -0.000   0.000  -0.480  -0.000  -0.835   0.000  -0.000   0.487  -0.000   0.000   0.296  -0.000  -0.000  -0.043
  0.000  -0.000   3.701  -0.000   0.000   0.000   0.000  -1.659   0.000  -0.000   0.609  -0.059  -0.000  -0.363  -0.000  -0.000
 -0.480   0.000  -0.000   2.860  -0.000   0.487  -0.000   0.000  -0.835   0.000  -0.000   0.000   0.000  -0.000   0.296   0.000
  0.000  -0.480   0.000  -0.000   3.804  -0.000   0.487  -0.000   0.000  -1.814  -0.000   0.000  -0.665   0.000  -0.000   0.097
 -1.814  -0.000   0.000   0.487  -0.000   1.816   0.000  -0.000  -0.494   0.000   0.000  -0.000   0.000  -0.000   0.648  -0.000
 -0.000  -0.835   0.000  -0.000   0.487   0.000   0.803  -0.000   0.000  -0.494   0.000  -0.000  -0.294   0.000   0.000   0.054
 -0.000   0.000  -1.659   0.000  -0.000  -0.000  -0.000   1.610  -0.000   0.000  -0.618   0.098   0.000   0.349  -0.000   0.000
  0.487  -0.000   0.000  -0.835   0.000  -0.494   0.000  -0.000   0.803  -0.000   0.000   0.000  -0.000   0.000  -0.294   0.000
 -0.000   0.487  -0.000   0.000  -1.814   0.000  -0.494   0.000  -0.000   1.816   0.000  -0.000   0.648  -0.000   0.000  -0.110
 -0.000  -0.000   0.609  -0.000  -0.000   0.000   0.000  -0.618   0.000   0.000   2.434  -0.548   0.000  -0.072   0.000  -0.000
  0.000   0.000  -0.059   0.000   0.000  -0.000  -0.000   0.098   0.000  -0.000  -0.548   0.153  -0.000   0.010  -0.000   0.000
 -0.000   0.296  -0.000   0.000  -0.665   0.000  -0.294   0.000  -0.000   0.648   0.000  -0.000   0.402  -0.000   0.000  -0.068
  0.000  -0.000  -0.363  -0.000   0.000  -0.000   0.000   0.349   0.000  -0.000  -0.072   0.010  -0.000   0.222  -0.000   0.000
 -0.665  -0.000  -0.000   0.296  -0.000   0.648   0.000  -0.000  -0.294   0.000   0.000  -0.000   0.000  -0.000   0.402  -0.000
  0.000  -0.043  -0.000   0.000   0.097  -0.000   0.054   0.000   0.000  -0.110  -0.000   0.000  -0.068   0.000  -0.000   0.014
 -0.000  -0.000   0.069  -0.000  -0.000   0.000   0.000  -0.071  -0.000   0.000   0.018  -0.004   0.000  -0.040   0.000  -0.000
  0.097   0.000   0.000  -0.043   0.000  -0.110  -0.000   0.000   0.054  -0.000   0.000   0.000  -0.000   0.000  -0.068   0.000


------------------------ aborting loop because EDIFF is reached ----------------------------------------


    CHARGE:  cpu time     18.9051: real time     18.9606
    FORLOC:  cpu time      0.0176: real time      0.0176
    FORNL :  cpu time      3.8588: real time      3.8698
    STRESS:  cpu time     11.4029: real time     11.4358
    FORCOR:  cpu time      0.2318: real time      0.2338
    FORHAR:  cpu time      0.0729: real time      0.0731
    MIXING:  cpu time      0.0085: real time      0.0085
    OFIELD:  cpu time      0.0001: real time      0.0001

  FORCE on cell =-STRESS in cart. coord.  units (eV):
  Direction    XX          YY          ZZ          XY          YZ          ZX
  --------------------------------------------------------------------------------------
  Alpha Z   144.36138   144.36138   144.36138
  Ewald   -1174.00427 -1174.00437 -1685.89483     0.00002     0.00001    -0.00000
  Hartree   766.94732   766.94727   397.30257     0.00001     0.00001    -0.00000
  E(xc)    -289.41542  -289.41542  -289.58287     0.00000     0.00000     0.00000
  Local    -663.01569  -663.01554   212.75685    -0.00002    -0.00002     0.00000
  n-local   333.88264   333.88263   331.09146     0.00000     0.00000     0.00000
  augment   290.81454   290.81455   290.92797    -0.00000     0.00000     0.00000
  Kinetic   592.38028   592.38029   600.91881    -0.00000    -0.00000    -0.00000
  Fock        0.00000     0.00000     0.00000     0.00000     0.00000     0.00000
  -------------------------------------------------------------------------------------
  Total       1.95079     1.95079     1.88133     0.00000     0.00000    -0.00000
  in kB      19.47230    19.47228    18.77903     0.00000     0.00000    -0.00000
  external pressure =       19.24 kB  Pullay stress =        0.00 kB


 VOLUME and BASIS-vectors are now :
 -----------------------------------------------------------------------------
  energy-cutoff  :      500.00
  volume of cell :      160.51
      direct lattice vectors                 reciprocal lattice vectors
     1.944688005  1.122766133 12.252165354     0.257110648  0.148442903  0.027206076
    -1.944688067  1.122766151 12.252165346    -0.257110647  0.148442900  0.027206075
    -0.000000014 -2.245532345 12.252165355    -0.000000001 -0.296885803  0.027206075

  length of vectors
    12.456242254 12.456242258 12.456242266     0.298129756  0.298129753  0.298129754


 FORCES acting on ions
    electron-ion (+dipol)            ewald-force                    non-local-force                 convergence-correction
 -----------------------------------------------------------------------------------------------
   0.505E-05 0.646E-05 0.102E+03   -.435E-05 -.680E-05 -.104E+03   0.680E-06 -.248E-07 0.255E+01   -.145E-05 0.213E-06 0.103E-02
   -.300E-05 -.166E-04 -.523E+02   0.302E-05 0.154E-04 0.496E+02   -.488E-07 0.176E-05 0.277E+01   0.294E-06 0.107E-06 0.136E-04
   -.391E-05 -.845E-05 -.617E+02   0.425E-05 0.847E-05 0.609E+02   0.428E-06 0.543E-06 0.793E+00   -.455E-06 -.371E-06 -.176E-02
   -.523E-05 -.504E-05 0.124E+03   0.480E-05 0.591E-05 -.127E+03   0.442E-06 -.549E-06 0.331E+01   0.139E-06 0.135E-06 0.453E-03
   0.560E-05 0.562E-05 -.115E+03   -.527E-05 -.587E-05 0.122E+03   -.538E-06 0.340E-08 -.671E+01   0.477E-07 -.688E-07 -.447E-03
   0.281E-05 0.130E-04 0.695E+02   -.321E-05 -.139E-04 -.716E+02   0.302E-06 0.133E-06 0.218E+01   -.983E-09 0.928E-07 0.335E-03
   -.490E-06 0.249E-05 -.739E+02   0.756E-06 -.313E-05 0.708E+02   -.200E-06 0.632E-06 0.303E+01   -.113E-06 -.700E-08 -.178E-03
 -----------------------------------------------------------------------------------------------
   0.839E-06 -.253E-05 -.793E+01   0.215E-14 0.193E-13 -.284E-13   0.107E-05 0.250E-05 0.794E+01   -.154E-05 0.101E-06 -.559E-03
 
 
 POSITION                                       TOTAL-FORCE (eV/Angst)
 -----------------------------------------------------------------------------------
     -0.00000      0.00000     14.39936        -0.000000     -0.000000     -0.046913
     -0.00000     -0.00000      5.94654         0.000000      0.000001      0.096715
     -0.00000     -0.00000     34.44579         0.000000      0.000000     -0.028586
     -0.00000     -0.00000      1.60970         0.000000      0.000000     -0.033697
     -0.00000      0.00000     11.01201        -0.000000     -0.000000      0.048261
     -0.00000      0.00000     16.94353        -0.000000     -0.000001      0.024926
     -0.00000     -0.00000     31.99209        -0.000000     -0.000000     -0.060706
 -----------------------------------------------------------------------------------
    total drift:                                0.000000      0.000000      0.000040


--------------------------------------------------------------------------------------------------------



  FREE ENERGIE OF THE ION-ELECTRON SYSTEM (eV)
  ---------------------------------------------------
  free  energy   TOTEN  =       -26.66454207 eV

  energy  without entropy=      -26.66454191  energy(sigma->0) =      -26.66454199
 


--------------------------------------------------------------------------------------------------------


    POTLOK:  cpu time      0.3832: real time      0.3844


--------------------------------------------------------------------------------------------------------


     LOOP+:  cpu time   4643.4638: real time   4658.3090
    4ORBIT:  cpu time      0.0000: real time      0.0000

 total amount of memory used by VASP MPI-rank0   532865. kBytes
=======================================================================

   base      :      30000. kBytes
   nonl-proj :     329656. kBytes
   fftplans  :      17701. kBytes
   grid      :      28016. kBytes
   one-center:         15. kBytes
   wavefun   :     127477. kBytes
 
  
  
 General timing and accounting informations for this job:
 ========================================================
  
                  Total CPU time used (sec):     4683.654
                            User time (sec):     4472.902
                          System time (sec):      210.752
                         Elapsed time (sec):     4699.065
  
                   Maximum memory used (kb):      762548.
                   Average memory used (kb):          N/A
  
                          Minor page faults:       315571
                          Major page faults:            0
                 Voluntary context switches:         1520
