/scratch/aleks/calculations/VASP/ZnIn2S4_trig/scf_prim
Fri Nov  8 21:37:15 EET 2024
 running on   36 total cores
 distrk:  each k-point on   36 cores,    1 groups
 distr:  one band on    9 cores,    4 groups
 vasp.6.3.2 27Jun22 (build Sep 20 2022 16:10:27) complex                        
  
 POSCAR found type information on POSCAR ZnInS 
 POSCAR found :  3 types and       7 ions
 Reading from existing POTCAR
 scaLAPACK will be used
 Reading from existing POTCAR
 LDA part: xc-table for Pade appr. of Perdew
 POSCAR, INCAR and KPOINTS ok, starting setup
 FFT: planning ... GRIDC
 FFT: planning ... GRID_SOFT
 FFT: planning ... GRID
 WAVECAR not read
 entering main loop
       N       E                     dE             d eps       ncg     rms          rms(c)
DAV:   1     0.590034571326E+03    0.59003E+03   -0.27457E+04135096   0.174E+03
DAV:   2     0.597432382327E+02   -0.53029E+03   -0.50746E+03136120   0.447E+02
DAV:   3    -0.235166687974E+02   -0.83260E+02   -0.80978E+02166896   0.175E+02
DAV:   4    -0.282458865388E+02   -0.47292E+01   -0.47029E+01165216   0.423E+01
DAV:   5    -0.284499172803E+02   -0.20403E+00   -0.20396E+00202016   0.934E+00    0.133E+01
DAV:   6    -0.266943361340E+02    0.17556E+01   -0.31100E+00220656   0.388E+01    0.962E+00
DAV:   7    -0.266993192265E+02   -0.49831E-02   -0.28265E+00189728   0.116E+01    0.301E+00
DAV:   8    -0.266625770301E+02    0.36742E-01   -0.36899E-01184440   0.519E+00    0.198E+00
DAV:   9    -0.266647871106E+02   -0.22101E-02   -0.44116E-02173064   0.105E+00    0.871E-01
DAV:  10    -0.266642469386E+02    0.54017E-03   -0.56305E-03187240   0.862E-01    0.585E-01
DAV:  11    -0.266645678694E+02   -0.32093E-03   -0.20651E-03163600   0.249E-01    0.146E-01
DAV:  12    -0.266645313385E+02    0.36531E-04   -0.40089E-04194192   0.158E-01    0.108E-01
DAV:  13    -0.266645402448E+02   -0.89064E-05   -0.69155E-05164392   0.505E-02    0.444E-02
DAV:  14    -0.266645413608E+02   -0.11160E-05   -0.19385E-05183096   0.391E-02    0.125E-02
DAV:  15    -0.266645419519E+02   -0.59112E-06   -0.43832E-06179384   0.138E-02    0.727E-03
DAV:  16    -0.266645420550E+02   -0.10301E-06   -0.79949E-07150144   0.690E-03    0.394E-03
DAV:  17    -0.266645420677E+02   -0.12697E-07   -0.22632E-07139576   0.431E-03
   1 F= -.26664542E+02 E0= -.26664542E+02  d E =-.161008E-06
Fri Nov  8 22:55:35 EET 2024
