/scratch/aleks/calculations/VASP/ZnIn2S4_trig/geom_prim
Fri Nov  8 19:12:29 EET 2024
 running on   36 total cores
 distrk:  each k-point on   36 cores,    1 groups
 distr:  one band on    9 cores,    4 groups
 vasp.6.3.2 27Jun22 (build Sep 20 2022 16:10:27) complex                        
  
 POSCAR found type information on POSCAR ZnInS 
 POSCAR found :  3 types and       7 ions
 Reading from existing POTCAR
 scaLAPACK will be used
 Reading from existing POTCAR
 LDA part: xc-table for Pade appr. of Perdew
 POSCAR, INCAR and KPOINTS ok, starting setup
 FFT: planning ... GRIDC
 FFT: planning ... GRID_SOFT
 FFT: planning ... GRID
 WAVECAR not read
 entering main loop
       N       E                     dE             d eps       ncg     rms          rms(c)
DAV:   1     0.513310348108E+03    0.51331E+03   -0.22863E+04 13760   0.137E+03
DAV:   2     0.437765361498E+02   -0.46953E+03   -0.44824E+03 14280   0.376E+02
DAV:   3    -0.248396654772E+02   -0.68616E+02   -0.66980E+02 17112   0.156E+02
DAV:   4    -0.283488696444E+02   -0.35092E+01   -0.34937E+01 16744   0.370E+01
DAV:   5    -0.285077127077E+02   -0.15884E+00   -0.15880E+00 20496   0.794E+00
DAV:   6    -0.285112478219E+02   -0.35351E-02   -0.35349E-02 20496   0.990E-01
DAV:   7    -0.285113341742E+02   -0.86352E-04   -0.86351E-04 21376   0.163E-01
DAV:   8    -0.285113364671E+02   -0.22928E-05   -0.22928E-05 20752   0.246E-02
DAV:   9    -0.285113365461E+02   -0.78994E-07   -0.78983E-07 19408   0.474E-03
DAV:  10    -0.285113365483E+02   -0.22774E-08   -0.22851E-08 11256   0.997E-04
DAV:  11    -0.285113365491E+02   -0.73851E-09   -0.75465E-09 10712   0.610E-04
DAV:  12    -0.285113365495E+02   -0.38926E-09   -0.39341E-09 10888   0.456E-04
DAV:  13    -0.285113365497E+02   -0.22192E-09   -0.23538E-09 10536   0.348E-04
DAV:  14    -0.285113365499E+02   -0.17189E-09   -0.14593E-09 10672   0.276E-04
DAV:  15    -0.285113365500E+02   -0.12369E-09   -0.91301E-10 10256   0.215E-04
DAV:  16    -0.285113365500E+02   -0.72760E-11   -0.57432E-10 10336   0.172E-04
DAV:  17    -0.285113365501E+02   -0.53660E-10   -0.36151E-10 10032   0.135E-04
DAV:  18    -0.285113365501E+02   -0.27285E-10   -0.22803E-10 10048   0.108E-04
DAV:  19    -0.285113365501E+02   -0.55479E-10   -0.14392E-10  9656   0.845E-05
DAV:  20    -0.285113365501E+02    0.20009E-10   -0.90970E-11  9472   0.678E-05    0.122E+01
RMM:  21    -0.271105978212E+02    0.14007E+01   -0.14964E+00 14795   0.632E+00    0.104E+01
RMM:  22    -0.267339908814E+02    0.37661E+00   -0.31195E+00 15667   0.622E+00    0.692E+00
RMM:  23    -0.267286996445E+02    0.52912E-02   -0.38397E-01 14966   0.419E+00    0.289E+00
RMM:  24    -0.267214725253E+02    0.72271E-02   -0.12160E-01 15851   0.174E+00    0.952E-01
RMM:  25    -0.267033590989E+02    0.18113E-01   -0.41033E-02 14746   0.137E+00    0.446E-01
RMM:  26    -0.267015124029E+02    0.18467E-02   -0.25835E-02 15989   0.786E-01    0.216E-01
RMM:  27    -0.267014244522E+02    0.87951E-04   -0.37761E-03 17151   0.393E-01    0.170E-01
RMM:  28    -0.267016157809E+02   -0.19133E-03   -0.13812E-03 17224   0.192E-01    0.130E-01
RMM:  29    -0.267014544291E+02    0.16135E-03   -0.99451E-04 14682   0.169E-01    0.699E-02
RMM:  30    -0.267014316418E+02    0.22787E-04   -0.13577E-04 16239   0.868E-02    0.545E-02
RMM:  31    -0.267014363824E+02   -0.47406E-05   -0.52017E-05 19966   0.320E-02    0.722E-02
RMM:  32    -0.267014352216E+02    0.11608E-05   -0.68878E-06 17001   0.121E-02    0.684E-02
RMM:  33    -0.267014373031E+02   -0.20815E-05   -0.24632E-06 13503   0.709E-03    0.708E-02
RMM:  34    -0.267014356886E+02    0.16145E-05   -0.23196E-06 14181   0.744E-03    0.670E-02
RMM:  35    -0.267014355704E+02    0.11820E-06   -0.90482E-07 13227   0.428E-03    0.649E-02
RMM:  36    -0.267014355570E+02    0.13387E-07   -0.11506E-07  8478   0.241E-03
   1 F= -.28136866E+02 E0= -.28136818E+02  d E =-.281369E+02
 curvature:   0.00 expect dE= 0.000E+00 dE for cont linesearch  0.000E+00
 trial: gam= 0.00000 g(F)=  0.444E-03 g(S)=  0.335E-01 ort = 0.000E+00 (trialstep = 0.100E+01)
 search vector abs. value=  0.340E-01
 bond charge predicted
       N       E                     dE             d eps       ncg     rms          rms(c)
DAV:   1    -0.268417807854E+02   -0.14035E+00   -0.32488E+00 18048   0.243E+01    0.273E+00
RMM:   2    -0.267576003507E+02    0.84180E-01   -0.15940E-01 13838   0.400E+00    0.179E+00
RMM:   3    -0.266989691213E+02    0.58631E-01   -0.18427E-01 13818   0.365E+00    0.566E-01
RMM:   4    -0.266970255116E+02    0.19436E-02   -0.27432E-02 16424   0.104E+00    0.321E-01
RMM:   5    -0.266971001398E+02   -0.74628E-04   -0.50979E-03 16370   0.463E-01    0.351E-01
RMM:   6    -0.266973033112E+02   -0.20317E-03   -0.14423E-03 18610   0.219E-01    0.460E-01
RMM:   7    -0.266965256777E+02    0.77763E-03   -0.14175E-03 13836   0.283E-01    0.303E-01
RMM:   8    -0.266965348718E+02   -0.91942E-05   -0.44115E-04 17060   0.118E-01    0.272E-01
RMM:   9    -0.266965133786E+02    0.21493E-04   -0.78024E-05 16483   0.510E-02    0.288E-01
RMM:  10    -0.266965091605E+02    0.42181E-05   -0.23783E-05 20232   0.277E-02    0.295E-01
RMM:  11    -0.266965026831E+02    0.64774E-05   -0.61294E-06 15986   0.195E-02    0.274E-01
RMM:  12    -0.266964961509E+02    0.65322E-05   -0.12809E-05 13946   0.317E-02    0.211E-01
RMM:  13    -0.266964935090E+02    0.26420E-05   -0.18893E-06 16450   0.101E-02    0.194E-01
RMM:  14    -0.266964939245E+02   -0.41555E-06   -0.57866E-07 11137   0.453E-03    0.198E-01
RMM:  15    -0.266964922627E+02    0.16618E-05   -0.29676E-07  9450   0.469E-03    0.186E-01
RMM:  16    -0.266964847611E+02    0.75016E-05   -0.93698E-06 18773   0.241E-02    0.116E-01
RMM:  17    -0.266964831985E+02    0.15627E-05   -0.15246E-06 15640   0.987E-03    0.885E-02
RMM:  18    -0.266964829544E+02    0.24409E-06   -0.16202E-07  8512   0.274E-03    0.835E-02
RMM:  19    -0.266964827622E+02    0.19220E-06   -0.88705E-08  8415   0.210E-03    0.786E-02
RMM:  20    -0.266964815292E+02    0.12329E-05   -0.32040E-06 16274   0.155E-02    0.414E-02
RMM:  21    -0.266964813939E+02    0.13536E-06   -0.12702E-06 12199   0.875E-03    0.141E-02
RMM:  22    -0.266964813975E+02   -0.35689E-08   -0.11648E-07  8516   0.215E-03
   2 F= -.28161778E+02 E0= -.28161763E+02  d E =-.249118E-01
 trial-energy change:   -0.024912  1 .order   -0.024607   -0.033980   -0.015234
 step:   1.6971(harm=  1.8126)  dis= 0.00225  next Energy=   -28.167191 (dE=-0.303E-01)
 bond charge predicted
       N       E                     dE             d eps       ncg     rms          rms(c)
DAV:   1    -0.267524261323E+02   -0.55945E-01   -0.15947E+00 17888   0.173E+01    0.190E+00
RMM:   2    -0.267114975356E+02    0.40929E-01   -0.77925E-02 13838   0.281E+00    0.125E+00
RMM:   3    -0.266826605852E+02    0.28837E-01   -0.90799E-02 13819   0.258E+00    0.396E-01
RMM:   4    -0.266817021084E+02    0.95848E-03   -0.13474E-02 16256   0.746E-01    0.219E-01
RMM:   5    -0.266817649730E+02   -0.62865E-04   -0.25759E-03 16530   0.324E-01    0.244E-01
RMM:   6    -0.266818836089E+02   -0.11864E-03   -0.71969E-04 18291   0.160E-01    0.330E-01
RMM:   7    -0.266814960284E+02    0.38758E-03   -0.75096E-04 13807   0.201E-01    0.203E-01
RMM:   8    -0.266815074835E+02   -0.11455E-04   -0.21584E-04 17101   0.838E-02    0.178E-01
RMM:   9    -0.266814997572E+02    0.77264E-05   -0.39847E-05 17435   0.350E-02    0.190E-01
RMM:  10    -0.266815006394E+02   -0.88229E-06   -0.72574E-06 19873   0.150E-02    0.202E-01
RMM:  11    -0.266814980280E+02    0.26114E-05   -0.28351E-06 15129   0.141E-02    0.188E-01
RMM:  12    -0.266814917715E+02    0.62565E-05   -0.13913E-05 15033   0.309E-02    0.144E-01
RMM:  13    -0.266814888690E+02    0.29025E-05   -0.46829E-06 14760   0.155E-02    0.115E-01
RMM:  14    -0.266814885992E+02    0.26983E-06   -0.78236E-07 14773   0.489E-03    0.106E-01
RMM:  15    -0.266814890006E+02   -0.40145E-06   -0.25399E-07  9711   0.436E-03    0.114E-01
RMM:  16    -0.266814877470E+02    0.12536E-05   -0.82268E-07 12877   0.803E-03    0.797E-02
RMM:  17    -0.266814871451E+02    0.60193E-06   -0.92668E-07 12906   0.633E-03    0.578E-02
RMM:  18    -0.266814871021E+02    0.43035E-07   -0.10610E-07  8375   0.211E-03
   3 F= -.28167991E+02 E0= -.28167985E+02  d E =-.311244E-01
 curvature:  -0.89 expect dE=-0.187E-02 dE for cont linesearch -0.358E-04
 ZBRENT: extrapolating
 opt :   1.7551  next Energy=   -28.168025 (dE=-0.312E-01)
 bond charge predicted
       N       E                     dE             d eps       ncg     rms          rms(c)
DAV:   1    -0.266802453160E+02    0.12418E-02   -0.11122E-02 17928   0.147E+00    0.140E-01
RMM:   2    -0.266799849340E+02    0.26038E-03   -0.51921E-04 13831   0.229E-01    0.898E-02
RMM:   3    -0.266797997461E+02    0.18519E-03   -0.53708E-04 13818   0.199E-01    0.337E-02
RMM:   4    -0.266797930204E+02    0.67257E-05   -0.86767E-05 16182   0.607E-02    0.245E-02
RMM:   5    -0.266797944644E+02   -0.14440E-05   -0.17462E-05 16611   0.251E-02    0.263E-02
RMM:   6    -0.266797953805E+02   -0.91614E-06   -0.51200E-06 15661   0.144E-02    0.376E-02
RMM:   7    -0.266797971236E+02   -0.17431E-05   -0.10878E-05 14356   0.213E-02    0.827E-03
RMM:   8    -0.266797971953E+02   -0.71635E-07   -0.13442E-06 16283   0.803E-03    0.899E-03
RMM:   9    -0.266797972406E+02   -0.45319E-07   -0.39179E-07 10337   0.361E-03
   4 F= -.28168079E+02 E0= -.28168075E+02  d E =-.312129E-01
 curvature:  -0.84 expect dE=-0.187E-02 dE for cont linesearch -0.157E-04
 ZBRENT: increasing intervall
 opt :   1.8710  next Energy=   -28.168128 (dE=-0.313E-01)
 bond charge predicted
       N       E                     dE             d eps       ncg     rms          rms(c)
DAV:   1    -0.266781559159E+02    0.16413E-02   -0.44552E-02 17904   0.294E+00    0.311E-01
RMM:   2    -0.266770337311E+02    0.11222E-02   -0.21386E-03 13841   0.469E-01    0.205E-01
RMM:   3    -0.266762289687E+02    0.80476E-03   -0.25083E-03 13822   0.430E-01    0.658E-02
RMM:   4    -0.266762057006E+02    0.23268E-04   -0.37023E-04 16156   0.126E-01    0.364E-02
RMM:   5    -0.266762097395E+02   -0.40389E-05   -0.73781E-05 16691   0.531E-02    0.414E-02
RMM:   6    -0.266762127720E+02   -0.30325E-05   -0.19877E-05 17977   0.274E-02    0.570E-02
RMM:   7    -0.266762086775E+02    0.40944E-05   -0.23650E-05 13812   0.347E-02    0.324E-02
RMM:   8    -0.266762103444E+02   -0.16668E-05   -0.61022E-06 17064   0.144E-02    0.282E-02
RMM:   9    -0.266762099477E+02    0.39668E-06   -0.10705E-06 14828   0.597E-03    0.296E-02
RMM:  10    -0.266762099541E+02   -0.64010E-08   -0.19521E-07  9084   0.315E-03
   5 F= -.28168055E+02 E0= -.28168051E+02  d E =-.311884E-01
 curvature:  -2.62 expect dE=-0.689E-02 dE for cont linesearch -0.267E-03
 ZBRENT: bracketing found
 ZBRENT: interpolating
 opt :   1.7897  next Energy=   -28.168093 (dE=-0.312E-01)
 bond charge predicted
       N       E                     dE             d eps       ncg     rms          rms(c)
DAV:   1    -0.266797516771E+02   -0.35417E-02   -0.21893E-02 17976   0.206E+00    0.235E-01
RMM:   2    -0.266791890847E+02    0.56259E-03   -0.10620E-03 13865   0.332E-01    0.159E-01
RMM:   3    -0.266787807031E+02    0.40838E-03   -0.13685E-03 13825   0.320E-01    0.498E-02
RMM:   4    -0.266787658164E+02    0.14887E-04   -0.18828E-04 16035   0.906E-02    0.224E-02
RMM:   5    -0.266787643861E+02    0.14303E-05   -0.37535E-05 16744   0.385E-02    0.250E-02
RMM:   6    -0.266787651847E+02   -0.79856E-06   -0.90343E-06 18586   0.178E-02    0.317E-02
RMM:   7    -0.266787588789E+02    0.63057E-05   -0.27952E-06 14341   0.133E-02    0.296E-02
RMM:   8    -0.266787546397E+02    0.42392E-05   -0.30316E-06 13806   0.993E-03    0.297E-02
RMM:   9    -0.266787541447E+02    0.49504E-06   -0.65895E-07 14681   0.673E-03    0.316E-02
RMM:  10    -0.266787542004E+02   -0.55683E-07   -0.28921E-07  9616   0.312E-03
   6 F= -.28168101E+02 E0= -.28168097E+02  d E =-.312347E-01
 curvature:  -0.13 expect dE=-0.311E-03 dE for cont linesearch -0.170E-05
 ZBRENT: bisectioning
 opt :   1.8304  next Energy=   -28.168124 (dE=-0.313E-01)
 bond charge predicted
       N       E                     dE             d eps       ncg     rms          rms(c)
DAV:   1    -0.266777541510E+02    0.99999E-03   -0.54754E-03 17976   0.103E+00    0.132E-01
RMM:   2    -0.266776049181E+02    0.14923E-03   -0.26913E-04 13860   0.167E-01    0.913E-02
RMM:   3    -0.266774954022E+02    0.10952E-03   -0.38853E-04 13826   0.170E-01    0.282E-02
RMM:   4    -0.266774955445E+02   -0.14227E-06   -0.50731E-05 15929   0.469E-02    0.106E-02
RMM:   5    -0.266774966915E+02   -0.11470E-05   -0.10057E-05 16860   0.206E-02    0.108E-02
RMM:   6    -0.266774969998E+02   -0.30835E-06   -0.20834E-06 15711   0.850E-03    0.109E-02
RMM:   7    -0.266774970442E+02   -0.44347E-07   -0.40445E-07 10723   0.525E-03
   7 F= -.28168092E+02 E0= -.28168088E+02  d E =-.312261E-01
 curvature:  -1.85 expect dE=-0.449E-02 dE for cont linesearch -0.582E-04
 ZBRENT: interpolating
 opt :   1.8055  next Energy=   -28.168106 (dE=-0.312E-01)
 bond charge predicted
       N       E                     dE             d eps       ncg     rms          rms(c)
DAV:   1    -0.266783539838E+02   -0.85698E-03   -0.20367E-03 18264   0.631E-01    0.651E-02
RMM:   2    -0.266783069083E+02    0.47076E-04   -0.98445E-05 13831   0.999E-02    0.419E-02
RMM:   3    -0.266782754990E+02    0.31409E-04   -0.11157E-04 13818   0.901E-02    0.123E-02
RMM:   4    -0.266782742192E+02    0.12798E-05   -0.16555E-05 16150   0.262E-02    0.625E-03
RMM:   5    -0.266782739262E+02    0.29294E-06   -0.31528E-06 16380   0.109E-02    0.731E-03
RMM:   6    -0.266782742865E+02   -0.36030E-06   -0.79194E-07 13002   0.572E-03    0.101E-02
RMM:   7    -0.266782723599E+02    0.19267E-05   -0.10334E-06 14130   0.767E-03    0.537E-03
RMM:   8    -0.266782720769E+02    0.28300E-06   -0.28764E-07 10521   0.288E-03    0.489E-03
RMM:   9    -0.266782721253E+02   -0.48488E-07   -0.61724E-08  8403   0.175E-03
   8 F= -.28168102E+02 E0= -.28168098E+02  d E =-.312358E-01
 curvature:  -0.16 expect dE=-0.381E-03 dE for cont linesearch -0.383E-11
 trial: gam= 0.06884 g(F)=  0.208E-02 g(S)=  0.255E-03 ort =-0.893E-06 (trialstep = 0.116E+01)
 search vector abs. value=  0.250E-02
 bond charge predicted
       N       E                     dE             d eps       ncg     rms          rms(c)
DAV:   1    -0.266788847415E+02   -0.61266E-03   -0.10558E-01 16856   0.219E+00    0.283E-01
RMM:   2    -0.266787487387E+02    0.13600E-03   -0.66246E-03 15145   0.534E-01    0.160E-01
RMM:   3    -0.266784679540E+02    0.28078E-03   -0.17343E-03 16114   0.280E-01    0.820E-02
RMM:   4    -0.266783644279E+02    0.10353E-03   -0.48736E-04 15103   0.148E-01    0.396E-02
RMM:   5    -0.266783679847E+02   -0.35568E-05   -0.17360E-04 17639   0.807E-02    0.409E-02
RMM:   6    -0.266783711123E+02   -0.31276E-05   -0.32585E-05 19219   0.317E-02    0.457E-02
RMM:   7    -0.266783705710E+02    0.54129E-06   -0.55290E-06 15851   0.156E-02    0.561E-02
RMM:   8    -0.266783702815E+02    0.28955E-06   -0.66230E-06 14024   0.139E-02    0.154E-02
RMM:   9    -0.266783728999E+02   -0.26185E-05   -0.85454E-06 14275   0.116E-02    0.271E-02
RMM:  10    -0.266783718823E+02    0.10177E-05   -0.90968E-07 14105   0.699E-03    0.175E-02
RMM:  11    -0.266783708454E+02    0.10368E-05   -0.34947E-06 15609   0.767E-03    0.260E-03
RMM:  12    -0.266783714535E+02   -0.60809E-06   -0.76665E-07 12767   0.561E-03    0.104E-02
RMM:  13    -0.266783714375E+02    0.15983E-07   -0.12761E-07  8678   0.214E-03
   9 F= -.28170648E+02 E0= -.28170644E+02  d E =-.254623E-02
 ZBRENT: can't locate minimum, use default step
 trial-energy change:   -0.002546  1 .order   -0.002559   -0.002715   -0.002404
 step:   4.6444(harm= 10.1357)  dis= 0.01976  next Energy=   -28.179952 (dE=-0.119E-01)
 bond charge predicted
       N       E                     dE             d eps       ncg     rms          rms(c)
DAV:   1    -0.266814066380E+02   -0.30352E-02   -0.94886E-01 16872   0.653E+00    0.862E-01
RMM:   2    -0.266801513063E+02    0.12553E-02   -0.59483E-02 15099   0.160E+00    0.489E-01
RMM:   3    -0.266775978047E+02    0.25535E-02   -0.16059E-02 16186   0.850E-01    0.240E-01
RMM:   4    -0.266767380756E+02    0.85973E-03   -0.43294E-03 15150   0.435E-01    0.121E-01
RMM:   5    -0.266767450994E+02   -0.70238E-05   -0.15142E-03 17563   0.243E-01    0.124E-01
RMM:   6    -0.266767691381E+02   -0.24039E-04   -0.29600E-04 19149   0.955E-02    0.139E-01
RMM:   7    -0.266767625181E+02    0.66200E-05   -0.71965E-05 14851   0.601E-02    0.180E-01
RMM:   8    -0.266767497504E+02    0.12768E-04   -0.84184E-05 14083   0.519E-02    0.321E-02
RMM:   9    -0.266767602678E+02   -0.10517E-04   -0.63831E-05 15733   0.339E-02    0.774E-02
RMM:  10    -0.266767544487E+02    0.58191E-05   -0.74543E-06 16653   0.203E-02    0.558E-02
RMM:  11    -0.266767519924E+02    0.24563E-05   -0.32551E-06 16390   0.923E-03    0.473E-02
RMM:  12    -0.266767502543E+02    0.17381E-05   -0.16059E-06 14146   0.634E-03    0.454E-02
RMM:  13    -0.266767472367E+02    0.30176E-05   -0.94660E-06 17713   0.113E-02    0.157E-02
RMM:  14    -0.266767473203E+02   -0.83649E-07   -0.68109E-07 13225   0.431E-03
  10 F= -.28176338E+02 E0= -.28176334E+02  d E =-.823610E-02
 curvature:  -3.39 expect dE=-0.656E-02 dE for cont linesearch -0.202E-02
 ZBRENT: increasing intervall
 opt :  11.6109  next Energy=   -28.178934 (dE=-0.108E-01)
 bond charge predicted
       N       E                     dE             d eps       ncg     rms          rms(c)
DAV:   1    -0.266832047828E+02   -0.64575E-02   -0.37888E+00 16968   0.130E+01    0.178E+00
RMM:   2    -0.266779543024E+02    0.52505E-02   -0.23940E-01 15065   0.321E+00    0.101E+00
RMM:   3    -0.266674672738E+02    0.10487E-01   -0.65681E-02 16215   0.172E+00    0.476E-01
RMM:   4    -0.266643082054E+02    0.31591E-02   -0.17733E-02 15294   0.867E-01    0.253E-01
RMM:   5    -0.266643733183E+02   -0.65113E-04   -0.59737E-03 17643   0.491E-01    0.278E-01
RMM:   6    -0.266644842054E+02   -0.11089E-03   -0.12387E-03 19256   0.192E-01    0.326E-01
RMM:   7    -0.266643798917E+02    0.10431E-03   -0.28182E-04 14749   0.126E-01    0.369E-01
RMM:   8    -0.266644480993E+02   -0.68208E-04   -0.27294E-04 14473   0.109E-01    0.549E-01
RMM:   9    -0.266653852175E+02   -0.93712E-03   -0.18771E-03 19442   0.233E-01    0.135E+00
RMM:  10    -0.266642942101E+02    0.10910E-02   -0.34202E-03 19375   0.390E-01    0.126E-01
RMM:  11    -0.266644078042E+02   -0.11359E-03   -0.87162E-04 17192   0.149E-01    0.344E-01
RMM:  12    -0.266643561851E+02    0.51619E-04   -0.11067E-03 16961   0.226E-01    0.289E-01
RMM:  13    -0.266642926060E+02    0.63579E-04   -0.17540E-04 13772   0.105E-01    0.315E-02
RMM:  14    -0.266643065660E+02   -0.13960E-04   -0.79921E-05 14590   0.489E-02    0.138E-01
RMM:  15    -0.266642944269E+02    0.12139E-04   -0.21821E-05 14546   0.407E-02    0.266E-02
RMM:  16    -0.266642938654E+02    0.56156E-06   -0.10750E-05 14142   0.190E-02    0.246E-02
RMM:  17    -0.266642938085E+02    0.56832E-07   -0.16563E-06 16635   0.106E-02    0.115E-02
RMM:  18    -0.266642938557E+02   -0.47207E-07   -0.51896E-07 11179   0.333E-03
  11 F= -.28178359E+02 E0= -.28178356E+02  d E =-.102564E-01
 curvature:  -4.35 expect dE=-0.376E-01 dE for cont linesearch -0.767E-03
 ZBRENT: bracketing found
 ZBRENT: interpolating
 opt :   9.1573  next Energy=   -28.179173 (dE=-0.111E-01)
 bond charge predicted
       N       E                     dE             d eps       ncg     rms          rms(c)
DAV:   1    -0.266723540819E+02   -0.80603E-02   -0.47441E-01 17568   0.473E+00    0.592E-01
RMM:   2    -0.266718647899E+02    0.48929E-03   -0.30208E-02 15190   0.115E+00    0.335E-01
RMM:   3    -0.266706712638E+02    0.11935E-02   -0.79640E-03 16263   0.598E-01    0.179E-01
RMM:   4    -0.266701570633E+02    0.51420E-03   -0.22024E-03 14986   0.321E-01    0.839E-02
RMM:   5    -0.266701564111E+02    0.65217E-06   -0.83675E-04 17940   0.172E-01    0.852E-02
RMM:   6    -0.266701650021E+02   -0.85909E-05   -0.14482E-04 18808   0.690E-02    0.953E-02
RMM:   7    -0.266701659337E+02   -0.93162E-06   -0.22464E-05 16819   0.282E-02    0.116E-01
RMM:   8    -0.266701487205E+02    0.17213E-04   -0.50626E-05 14519   0.376E-02    0.220E-02
RMM:   9    -0.266701482072E+02    0.51328E-06   -0.32480E-05 16265   0.246E-02    0.549E-02
RMM:  10    -0.266701434983E+02    0.47089E-05   -0.46202E-06 14763   0.148E-02    0.355E-02
RMM:  11    -0.266701410242E+02    0.24741E-05   -0.19129E-05 17032   0.198E-02    0.438E-03
RMM:  12    -0.266701405200E+02    0.50418E-06   -0.28680E-06 13413   0.102E-02    0.163E-02
RMM:  13    -0.266701405341E+02   -0.14069E-07   -0.47696E-07 12719   0.434E-03
  12 F= -.28179132E+02 E0= -.28179128E+02  d E =-.110294E-01
 curvature:  -4.62 expect dE=-0.241E-01 dE for cont linesearch -0.231E-06
 trial: gam= 2.19045 g(F)=  0.459E-02 g(S)=  0.620E-03 ort = 0.112E-04 (trialstep = 0.400E+00)
 search vector abs. value=  0.173E-01
 bond charge predicted
       N       E                     dE             d eps       ncg     rms          rms(c)
DAV:   1    -0.266701777594E+02   -0.37239E-04   -0.13269E-01 17200   0.179E+00    0.189E-01
RMM:   2    -0.266706210837E+02   -0.44332E-03   -0.60730E-03 16649   0.495E-01    0.995E-02
RMM:   3    -0.266706957208E+02   -0.74637E-04   -0.17262E-03 16858   0.254E-01    0.458E-02
RMM:   4    -0.266707018250E+02   -0.61042E-05   -0.29797E-04 18426   0.982E-02    0.446E-02
RMM:   5    -0.266706968702E+02    0.49548E-05   -0.39686E-05 17752   0.361E-02    0.354E-02
RMM:   6    -0.266706927315E+02    0.41387E-05   -0.33413E-05 14188   0.341E-02    0.114E-02
RMM:   7    -0.266706922861E+02    0.44537E-06   -0.79131E-06 18043   0.183E-02    0.933E-03
RMM:   8    -0.266706925322E+02   -0.24609E-06   -0.17507E-06 15475   0.759E-03    0.116E-02
RMM:   9    -0.266706917629E+02    0.76928E-06   -0.75086E-07 12380   0.503E-03    0.114E-02
RMM:  10    -0.266706920256E+02   -0.26272E-06   -0.85983E-07 12502   0.484E-03    0.111E-02
RMM:  11    -0.266706921623E+02   -0.13671E-06   -0.28625E-07 10542   0.302E-03    0.113E-02
RMM:  12    -0.266706922069E+02   -0.44535E-07   -0.59723E-08  8427   0.198E-03
  13 F= -.28181128E+02 E0= -.28181124E+02  d E =-.199618E-02
 ZBRENT: can't locate minimum, use default step
 trial-energy change:   -0.001996  1 .order   -0.001991   -0.002095   -0.001887
 step:   1.5992(harm=  4.0326)  dis= 0.01581  next Energy=   -28.186260 (dE=-0.713E-02)
 bond charge predicted
       N       E                     dE             d eps       ncg     rms          rms(c)
DAV:   1    -0.266662375626E+02    0.44546E-02   -0.11873E+00 16216   0.531E+00    0.590E-01
RMM:   2    -0.266703171094E+02   -0.40795E-02   -0.55886E-02 16653   0.153E+00    0.318E-01
RMM:   3    -0.266711071977E+02   -0.79009E-03   -0.17264E-02 17089   0.799E-01    0.131E-01
RMM:   4    -0.266711614470E+02   -0.54249E-04   -0.25519E-03 18761   0.289E-01    0.129E-01
RMM:   5    -0.266711115534E+02    0.49894E-04   -0.34543E-04 17551   0.107E-01    0.995E-02
RMM:   6    -0.266710640990E+02    0.47454E-04   -0.29420E-04 14254   0.999E-02    0.340E-02
RMM:   7    -0.266710598456E+02    0.42533E-05   -0.65975E-05 18245   0.528E-02    0.274E-02
RMM:   8    -0.266710624632E+02   -0.26175E-05   -0.15044E-05 17722   0.216E-02    0.348E-02
RMM:   9    -0.266710542358E+02    0.82274E-05   -0.13057E-05 14322   0.180E-02    0.339E-02
RMM:  10    -0.266710555123E+02   -0.12766E-05   -0.64475E-06 17379   0.133E-02    0.311E-02
RMM:  11    -0.266710560118E+02   -0.49949E-06   -0.96656E-07 14713   0.732E-03    0.300E-02
RMM:  12    -0.266710561028E+02   -0.90919E-07   -0.37391E-07 10138   0.374E-03
  14 F= -.28185814E+02 E0= -.28185808E+02  d E =-.668263E-02
 curvature:  -3.66 expect dE=-0.791E-02 dE for cont linesearch -0.203E-02
 ZBRENT: increasing intervall
 opt :   3.9980  next Energy=   -28.189320 (dE=-0.102E-01)
 bond charge predicted
       N       E                     dE             d eps       ncg     rms          rms(c)
DAV:   1    -0.266453472400E+02    0.25709E-01   -0.47111E+00 15328   0.105E+01    0.122E+00
RMM:   2    -0.266625090131E+02   -0.17162E-01   -0.23116E-01 16623   0.323E+00    0.678E-01
RMM:   3    -0.266660988921E+02   -0.35899E-02   -0.76451E-02 17444   0.171E+00    0.269E-01
RMM:   4    -0.266664682756E+02   -0.36938E-03   -0.11698E-02 18714   0.605E-01    0.264E-01
RMM:   5    -0.266664095198E+02    0.58756E-04   -0.16578E-03 17727   0.221E-01    0.232E-01
RMM:   6    -0.266661467603E+02    0.26276E-03   -0.89236E-04 14054   0.161E-01    0.865E-02
RMM:   7    -0.266661250350E+02    0.21725E-04   -0.52757E-04 16843   0.148E-01    0.890E-02
RMM:   8    -0.266661619004E+02   -0.36865E-04   -0.13414E-04 17379   0.662E-02    0.101E-01
RMM:   9    -0.266661087109E+02    0.53190E-04   -0.38312E-05 14979   0.384E-02    0.713E-02
RMM:  10    -0.266660783223E+02    0.30389E-04   -0.88449E-05 15449   0.399E-02    0.617E-02
RMM:  11    -0.266660794487E+02   -0.11264E-05   -0.19991E-05 19401   0.222E-02    0.618E-02
RMM:  12    -0.266660808636E+02   -0.14149E-05   -0.13698E-06 14927   0.784E-03    0.601E-02
RMM:  13    -0.266660817488E+02   -0.88520E-06   -0.52525E-07 11934   0.435E-03    0.569E-02
RMM:  14    -0.266660760427E+02    0.57061E-05   -0.77464E-06 17507   0.105E-02    0.496E-02
RMM:  15    -0.266660762407E+02   -0.19801E-06   -0.47154E-07 11869   0.461E-03    0.438E-02
RMM:  16    -0.266660758313E+02    0.40946E-06   -0.34929E-07 10428   0.307E-03    0.404E-02
RMM:  17    -0.266660756778E+02    0.15354E-06   -0.11093E-07  8509   0.213E-03    0.331E-02
RMM:  18    -0.266660750944E+02    0.58335E-06   -0.47516E-07 11846   0.296E-03    0.250E-02
RMM:  19    -0.266660748998E+02    0.19463E-06   -0.14421E-07  8687   0.199E-03    0.223E-02
RMM:  20    -0.266660745808E+02    0.31899E-06   -0.32205E-07 10712   0.230E-03    0.154E-02
RMM:  21    -0.266660744014E+02    0.17935E-06   -0.22664E-07  9261   0.221E-03    0.882E-03
RMM:  22    -0.266660743306E+02    0.70799E-07   -0.11337E-07  8472   0.202E-03
  15 F= -.28189416E+02 E0= -.28189401E+02  d E =-.102845E-01
 curvature:  -6.33 expect dE=-0.729E-02 dE for cont linesearch -0.311E-05
 trial: gam= 0.12156 g(F)=  0.104E-02 g(S)=  0.113E-03 ort =-0.921E-04 (trialstep = 0.112E+01)
 search vector abs. value=  0.138E-02
 bond charge predicted
       N       E                     dE             d eps       ncg     rms          rms(c)
DAV:   1    -0.266655723018E+02    0.50210E-03   -0.12347E-01 16896   0.169E+00    0.207E-01
RMM:   2    -0.266657894237E+02   -0.21712E-03   -0.46090E-03 14869   0.456E-01    0.118E-01
RMM:   3    -0.266657745468E+02    0.14877E-04   -0.18453E-03 17529   0.294E-01    0.504E-02
RMM:   4    -0.266657964200E+02   -0.21873E-04   -0.49534E-04 16559   0.114E-01    0.465E-02
RMM:   5    -0.266657982722E+02   -0.18522E-05   -0.56302E-05 20113   0.422E-02    0.445E-02
RMM:   6    -0.266657955292E+02    0.27430E-05   -0.83056E-06 16703   0.155E-02    0.338E-02
RMM:   7    -0.266657871644E+02    0.83648E-05   -0.20567E-05 14550   0.282E-02    0.137E-02
RMM:   8    -0.266657865072E+02    0.65714E-06   -0.54218E-06 17578   0.149E-02    0.831E-03
RMM:   9    -0.266657869973E+02   -0.49009E-06   -0.18732E-06 16417   0.763E-03    0.112E-02
RMM:  10    -0.266657864629E+02    0.53438E-06   -0.55594E-07 11658   0.424E-03    0.878E-03
RMM:  11    -0.266657864279E+02    0.35036E-07   -0.78602E-07 11466   0.362E-03
  16 F= -.28190529E+02 E0= -.28190517E+02  d E =-.111310E-02
 trial-energy change:   -0.001113  1 .order   -0.001106   -0.001276   -0.000936
 step:   3.3392(harm=  4.1981)  dis= 0.00832  next Energy=   -28.191514 (dE=-0.210E-02)
 bond charge predicted
       N       E                     dE             d eps       ncg     rms          rms(c)
DAV:   1    -0.266634112709E+02    0.23752E-02   -0.48412E-01 16320   0.333E+00    0.415E-01
RMM:   2    -0.266642580559E+02   -0.84679E-03   -0.18022E-02 14887   0.909E-01    0.238E-01
RMM:   3    -0.266642326469E+02    0.25409E-04   -0.76137E-03 17680   0.587E-01    0.994E-02
RMM:   4    -0.266643044559E+02   -0.71809E-04   -0.17430E-03 16501   0.215E-01    0.911E-02
RMM:   5    -0.266643044477E+02    0.81236E-08   -0.20614E-04 20145   0.821E-02    0.869E-02
RMM:   6    -0.266642895737E+02    0.14874E-04   -0.31966E-05 16689   0.302E-02    0.630E-02
RMM:   7    -0.266642522309E+02    0.37343E-04   -0.82794E-05 14615   0.575E-02    0.277E-02
RMM:   8    -0.266642501782E+02    0.20527E-05   -0.19540E-05 17757   0.286E-02    0.169E-02
RMM:   9    -0.266642517910E+02   -0.16128E-05   -0.67899E-06 18251   0.144E-02    0.224E-02
RMM:  10    -0.266642500110E+02    0.17800E-05   -0.22357E-06 14396   0.867E-03    0.176E-02
RMM:  11    -0.266642497052E+02    0.30575E-06   -0.35474E-06 14604   0.739E-03    0.143E-02
RMM:  12    -0.266642498867E+02   -0.18147E-06   -0.59255E-07 13270   0.539E-03    0.128E-02
RMM:  13    -0.266642499857E+02   -0.99010E-07   -0.17268E-07  9335   0.241E-03
  17 F= -.28191760E+02 E0= -.28191753E+02  d E =-.234369E-02
 curvature:  -2.35 expect dE=-0.678E-03 dE for cont linesearch -0.112E-03
 ZBRENT: extrapolating
 opt :   4.3258  next Energy=   -28.191887 (dE=-0.247E-02)
 bond charge predicted
       N       E                     dE             d eps       ncg     rms          rms(c)
DAV:   1    -0.266629866956E+02    0.12632E-02   -0.95977E-02 16928   0.149E+00    0.182E-01
RMM:   2    -0.266631558957E+02   -0.16920E-03   -0.35881E-03 14882   0.403E-01    0.103E-01
RMM:   3    -0.266631478975E+02    0.79983E-05   -0.14663E-03 17644   0.260E-01    0.441E-02
RMM:   4    -0.266631637504E+02   -0.15853E-04   -0.35862E-04 16576   0.971E-02    0.413E-02
RMM:   5    -0.266631646041E+02   -0.85372E-06   -0.40857E-05 20006   0.364E-02    0.395E-02
RMM:   6    -0.266631622699E+02    0.23342E-05   -0.65781E-06 16458   0.136E-02    0.291E-02
RMM:   7    -0.266631559112E+02    0.63587E-05   -0.17084E-05 14694   0.257E-02    0.129E-02
RMM:   8    -0.266631552953E+02    0.61583E-06   -0.40962E-06 17594   0.129E-02    0.788E-03
RMM:   9    -0.266631556780E+02   -0.38272E-06   -0.13895E-06 15171   0.667E-03    0.104E-02
RMM:  10    -0.266631551794E+02    0.49859E-06   -0.59960E-07 11628   0.401E-03    0.777E-03
RMM:  11    -0.266631552104E+02   -0.30970E-07   -0.69845E-07 11647   0.345E-03
  18 F= -.28191890E+02 E0= -.28191885E+02  d E =-.247430E-02
 curvature:  -2.65 expect dE=-0.104E-02 dE for cont linesearch -0.105E-06
 trial: gam= 0.33547 g(F)=  0.220E-03 g(S)=  0.173E-03 ort =-0.740E-05 (trialstep = 0.176E+01)
 search vector abs. value=  0.544E-03
 bond charge predicted
       N       E                     dE             d eps       ncg     rms          rms(c)
DAV:   1    -0.266671580878E+02   -0.40029E-02   -0.88136E-02 17192   0.234E+00    0.312E-01
RMM:   2    -0.266666851261E+02    0.47296E-03   -0.38663E-03 14066   0.479E-01    0.191E-01
RMM:   3    -0.266662075102E+02    0.47762E-03   -0.14846E-03 16332   0.287E-01    0.815E-02
RMM:   4    -0.266661182650E+02    0.89245E-04   -0.47239E-04 14808   0.137E-01    0.508E-02
RMM:   5    -0.266661180942E+02    0.17086E-06   -0.13820E-04 18219   0.784E-02    0.520E-02
RMM:   6    -0.266661203007E+02   -0.22066E-05   -0.27618E-05 18917   0.285E-02    0.582E-02
RMM:   7    -0.266661151588E+02    0.51419E-05   -0.35909E-06 17735   0.121E-02    0.583E-02
RMM:   8    -0.266661065434E+02    0.86154E-05   -0.97328E-06 14393   0.228E-02    0.698E-02
RMM:   9    -0.266661072640E+02   -0.72055E-06   -0.41682E-06 15527   0.116E-02    0.981E-02
RMM:  10    -0.266661091496E+02   -0.18856E-05   -0.20712E-06 16270   0.738E-03    0.120E-01
RMM:  11    -0.266661065139E+02    0.26357E-05   -0.13266E-06 12925   0.882E-03    0.928E-02
RMM:  12    -0.266661100762E+02   -0.35623E-05   -0.19368E-06 14463   0.984E-03    0.130E-01
RMM:  13    -0.266661054336E+02    0.46426E-05   -0.35514E-06 16578   0.125E-02    0.797E-02
RMM:  14    -0.266661050953E+02    0.33825E-06   -0.38332E-07 11208   0.294E-03    0.742E-02
RMM:  15    -0.266661039810E+02    0.11143E-05   -0.93460E-07 13045   0.605E-03    0.498E-02
RMM:  16    -0.266661027207E+02    0.12603E-05   -0.57184E-06 19428   0.142E-02    0.778E-03
RMM:  17    -0.266661027286E+02   -0.78662E-08   -0.16494E-07  8813   0.229E-03
  19 F= -.28192426E+02 E0= -.28192421E+02  d E =-.535549E-03
 trial-energy change:   -0.000536  1 .order   -0.000543   -0.000687   -0.000399
 step:   4.1925(harm=  4.1925)  dis= 0.00391  next Energy=   -28.192709 (dE=-0.818E-03)
 bond charge predicted
       N       E                     dE             d eps       ncg     rms          rms(c)
DAV:   1    -0.266717095425E+02   -0.56068E-02   -0.16808E-01 17096   0.324E+00    0.431E-01
RMM:   2    -0.266707996702E+02    0.90987E-03   -0.73421E-03 14072   0.660E-01    0.265E-01
RMM:   3    -0.266698802556E+02    0.91941E-03   -0.28389E-03 16332   0.398E-01    0.112E-01
RMM:   4    -0.266697123646E+02    0.16789E-03   -0.90381E-04 14835   0.189E-01    0.697E-02
RMM:   5    -0.266697134828E+02   -0.11183E-05   -0.26317E-04 18173   0.109E-01    0.711E-02
RMM:   6    -0.266697177289E+02   -0.42461E-05   -0.53043E-05 19016   0.395E-02    0.794E-02
RMM:   7    -0.266697089847E+02    0.87442E-05   -0.66143E-06 18080   0.164E-02    0.805E-02
RMM:   8    -0.266696948265E+02    0.14158E-04   -0.18593E-05 14414   0.317E-02    0.103E-01
RMM:   9    -0.266696989572E+02   -0.41308E-05   -0.11724E-05 14713   0.194E-02    0.159E-01
RMM:  10    -0.266697023412E+02   -0.33840E-05   -0.46860E-06 18714   0.110E-02    0.185E-01
RMM:  11    -0.266697025192E+02   -0.17802E-06   -0.99557E-07 13900   0.601E-03    0.184E-01
RMM:  12    -0.266696932935E+02    0.92257E-05   -0.80721E-06 18236   0.190E-02    0.107E-01
RMM:  13    -0.266696901455E+02    0.31480E-05   -0.32471E-06 15792   0.108E-02    0.686E-02
RMM:  14    -0.266696899418E+02    0.20363E-06   -0.45774E-07 12503   0.372E-03    0.633E-02
RMM:  15    -0.266696877857E+02    0.21561E-05   -0.56945E-06 19283   0.132E-02    0.132E-02
RMM:  16    -0.266696877932E+02   -0.74906E-08   -0.32668E-06 17561   0.744E-03    0.201E-02
RMM:  17    -0.266696877780E+02    0.15172E-07   -0.27341E-07 10368   0.330E-03
  20 F= -.28192678E+02 E0= -.28192674E+02  d E =-.787469E-03
 curvature:  -2.92 expect dE=-0.123E-02 dE for cont linesearch -0.318E-06
 trial: gam= 1.10050 g(F)=  0.219E-03 g(S)=  0.203E-03 ort =-0.770E-05 (trialstep = 0.115E+01)
 search vector abs. value=  0.106E-02
 bond charge predicted
       N       E                     dE             d eps       ncg     rms          rms(c)
DAV:   1    -0.266696026874E+02    0.85106E-04   -0.10230E-01 17592   0.165E+00    0.140E-01
RMM:   2    -0.266695797458E+02    0.22942E-04   -0.15204E-03 14981   0.274E-01    0.815E-02
RMM:   3    -0.266695132745E+02    0.66471E-04   -0.47808E-04 17621   0.142E-01    0.407E-02
RMM:   4    -0.266694930672E+02    0.20207E-04   -0.81649E-05 16566   0.618E-02    0.302E-02
RMM:   5    -0.266694870599E+02    0.60073E-05   -0.26640E-05 17065   0.327E-02    0.193E-02
RMM:   6    -0.266694871844E+02   -0.12459E-06   -0.88026E-06 17663   0.166E-02    0.988E-03
RMM:   7    -0.266694871797E+02    0.47394E-08   -0.31827E-06 15160   0.100E-02    0.493E-03
RMM:   8    -0.266694872979E+02   -0.11815E-06   -0.13148E-06 15077   0.535E-03    0.421E-03
RMM:   9    -0.266694872931E+02    0.47294E-08   -0.16433E-07  8848   0.267E-03
  21 F= -.28193113E+02 E0= -.28193110E+02  d E =-.435618E-03
 ZBRENT: can't locate minimum, use default step
 trial-energy change:   -0.000436  1 .order   -0.000435   -0.000475   -0.000395
 step:   4.5949(harm=  6.7874)  dis= 0.00945  next Energy=   -28.193899 (dE=-0.122E-02)
 bond charge predicted
       N       E                     dE             d eps       ncg     rms          rms(c)
DAV:   1    -0.266694788957E+02    0.84021E-05   -0.91667E-01 17136   0.491E+00    0.434E-01
RMM:   2    -0.266693007187E+02    0.17818E-03   -0.14046E-02 14986   0.826E-01    0.255E-01
RMM:   3    -0.266686743740E+02    0.62634E-03   -0.45171E-03 17414   0.439E-01    0.116E-01
RMM:   4    -0.266685083465E+02    0.16603E-03   -0.80994E-04 16710   0.190E-01    0.839E-02
RMM:   5    -0.266684547912E+02    0.53555E-04   -0.24068E-04 17679   0.979E-02    0.558E-02
RMM:   6    -0.266684461549E+02    0.86363E-05   -0.66705E-05 17394   0.453E-02    0.273E-02
RMM:   7    -0.266684419211E+02    0.42339E-05   -0.27177E-05 16188   0.321E-02    0.158E-02
RMM:   8    -0.266684429520E+02   -0.10310E-05   -0.12141E-05 19237   0.160E-02    0.142E-02
RMM:   9    -0.266684430516E+02   -0.99570E-07   -0.16150E-06 15053   0.683E-03    0.142E-02
RMM:  10    -0.266684431105E+02   -0.58885E-07   -0.33074E-07 10225   0.320E-03
  22 F= -.28193949E+02 E0= -.28193947E+02  d E =-.127162E-02
 curvature:  -7.41 expect dE=-0.924E-03 dE for cont linesearch -0.139E-03
 ZBRENT: increasing intervall
 opt :  11.4872  next Energy=   -28.193528 (dE=-0.851E-03)
 bond charge predicted
       N       E                     dE             d eps       ncg     rms          rms(c)
DAV:   1    -0.266644943279E+02    0.39487E-02   -0.36065E+00 15864   0.969E+00    0.928E-01
RMM:   2    -0.266669227282E+02   -0.24284E-02   -0.83151E-02 14973   0.193E+00    0.544E-01
RMM:   3    -0.266650841639E+02    0.18386E-02   -0.29697E-02 17506   0.114E+00    0.234E-01
RMM:   4    -0.266647180942E+02    0.36607E-03   -0.46591E-03 16585   0.409E-01    0.189E-01
RMM:   5    -0.266645025759E+02    0.21552E-03   -0.10705E-03 17505   0.200E-01    0.133E-01
RMM:   6    -0.266643962124E+02    0.10636E-03   -0.38660E-04 15476   0.111E-01    0.460E-02
RMM:   7    -0.266643622478E+02    0.33965E-04   -0.18660E-04 16153   0.982E-02    0.338E-02
RMM:   8    -0.266643665117E+02   -0.42639E-05   -0.59802E-05 19631   0.399E-02    0.467E-02
RMM:   9    -0.266643674124E+02   -0.90065E-06   -0.12071E-05 19072   0.181E-02    0.576E-02
RMM:  10    -0.266643675488E+02   -0.13638E-06   -0.20165E-06 16896   0.678E-03    0.616E-02
RMM:  11    -0.266643689210E+02   -0.13722E-05   -0.52706E-06 13864   0.951E-03    0.702E-02
RMM:  12    -0.266643739440E+02   -0.50230E-05   -0.63101E-06 15314   0.916E-03    0.102E-01
RMM:  13    -0.266643842797E+02   -0.10336E-04   -0.10963E-05 17550   0.104E-02    0.161E-01
RMM:  14    -0.266643701561E+02    0.14124E-04   -0.17975E-05 18203   0.135E-02    0.842E-02
RMM:  15    -0.266643665836E+02    0.35725E-05   -0.16493E-05 18430   0.119E-02    0.293E-02
RMM:  16    -0.266643694156E+02   -0.28320E-05   -0.87263E-06 15811   0.936E-03    0.689E-02
RMM:  17    -0.266643665132E+02    0.29024E-05   -0.58771E-06 16086   0.889E-03    0.226E-02
RMM:  18    -0.266643666225E+02   -0.10930E-06   -0.43521E-06 15519   0.630E-03    0.881E-03
RMM:  19    -0.266643664093E+02    0.21319E-06   -0.71905E-07 10946   0.371E-03    0.986E-03
RMM:  20    -0.266643664077E+02    0.16480E-08   -0.24310E-07 10101   0.183E-03
  23 F= -.28193502E+02 E0= -.28193502E+02  d E =-.824531E-03
 curvature:  22.45 expect dE= 0.993E-02 dE for cont linesearch  0.154E-02
 ZBRENT: bracketing found
 ZBRENT: interpolating
 opt :   6.9625  next Energy=   -28.194117 (dE=-0.144E-02)
 bond charge predicted
       N       E                     dE             d eps       ncg     rms          rms(c)
DAV:   1    -0.266691075065E+02   -0.47411E-02   -0.16053E+00 17064   0.670E+00    0.567E-01
RMM:   2    -0.266688503231E+02    0.25718E-03   -0.24948E-02 15017   0.113E+00    0.332E-01
RMM:   3    -0.266678346336E+02    0.10157E-02   -0.77515E-03 17682   0.578E-01    0.160E-01
RMM:   4    -0.266674807768E+02    0.35386E-03   -0.13625E-03 16454   0.253E-01    0.106E-01
RMM:   5    -0.266673708886E+02    0.10989E-03   -0.39973E-04 17699   0.127E-01    0.706E-02
RMM:   6    -0.266673429106E+02    0.27978E-04   -0.12262E-04 17634   0.628E-02    0.391E-02
RMM:   7    -0.266673347042E+02    0.82064E-05   -0.40888E-05 16881   0.356E-02    0.175E-02
RMM:   8    -0.266673357205E+02   -0.10163E-05   -0.16948E-05 19270   0.185E-02    0.154E-02
RMM:   9    -0.266673359142E+02   -0.19367E-06   -0.25373E-06 15506   0.781E-03    0.192E-02
RMM:  10    -0.266673354394E+02    0.47482E-06   -0.15842E-06 13697   0.703E-03    0.165E-02
RMM:  11    -0.266673356940E+02   -0.25459E-06   -0.87664E-07 13195   0.381E-03    0.156E-02
RMM:  12    -0.266673356264E+02    0.67545E-07   -0.15752E-07  8454   0.315E-03
  24 F= -.28194113E+02 E0= -.28194111E+02  d E =-.143482E-02
 curvature:  -2.44 expect dE=-0.300E-03 dE for cont linesearch -0.177E-07
 trial: gam= 0.20920 g(F)=  0.584E-04 g(S)=  0.645E-04 ort = 0.278E-05 (trialstep = 0.231E+01)
 search vector abs. value=  0.171E-03
 bond charge predicted
       N       E                     dE             d eps       ncg     rms          rms(c)
DAV:   1    -0.266669835384E+02    0.35216E-03   -0.36984E-02 16360   0.116E+00    0.141E-01
RMM:   2    -0.266668943467E+02    0.89192E-04   -0.13013E-03 16190   0.241E-01    0.897E-02
RMM:   3    -0.266668051244E+02    0.89222E-04   -0.38676E-04 15997   0.119E-01    0.471E-02
RMM:   4    -0.266667734439E+02    0.31681E-04   -0.11783E-04 17055   0.700E-02    0.247E-02
RMM:   5    -0.266667706100E+02    0.28339E-05   -0.29624E-05 16058   0.350E-02    0.219E-02
RMM:   6    -0.266667707505E+02   -0.14048E-06   -0.69287E-06 17630   0.148E-02    0.189E-02
RMM:   7    -0.266667708582E+02   -0.10774E-06   -0.22661E-06 15566   0.883E-03    0.838E-03
RMM:   8    -0.266667707674E+02    0.90838E-07   -0.17645E-06 14769   0.905E-03    0.261E-03
RMM:   9    -0.266667705377E+02    0.22965E-06   -0.62273E-07 12902   0.447E-03    0.268E-03
RMM:  10    -0.266667705442E+02   -0.64310E-08   -0.10671E-07  8427   0.259E-03
  25 F= -.28194354E+02 E0= -.28194352E+02  d E =-.241022E-03
 trial-energy change:   -0.000241  1 .order   -0.000239   -0.000285   -0.000192
 step:   5.7229(harm=  7.0556)  dis= 0.00419  next Energy=   -28.194503 (dE=-0.390E-03)
 bond charge predicted
       N       E                     dE             d eps       ncg     rms          rms(c)
DAV:   1    -0.266662328966E+02    0.53764E-03   -0.80594E-02 16216   0.171E+00    0.201E-01
RMM:   2    -0.266660402680E+02    0.19263E-03   -0.28380E-03 16183   0.356E-01    0.127E-01
RMM:   3    -0.266658493972E+02    0.19087E-03   -0.83485E-04 16046   0.174E-01    0.678E-02
RMM:   4    -0.266657779235E+02    0.71474E-04   -0.25047E-04 17068   0.102E-01    0.381E-02
RMM:   5    -0.266657693939E+02    0.85296E-05   -0.64829E-05 16035   0.510E-02    0.331E-02
RMM:   6    -0.266657690427E+02    0.35128E-06   -0.15054E-05 17968   0.220E-02    0.273E-02
RMM:   7    -0.266657684890E+02    0.55371E-06   -0.57079E-06 15287   0.127E-02    0.872E-03
RMM:   8    -0.266657679056E+02    0.58336E-06   -0.30157E-06 15295   0.124E-02    0.337E-03
RMM:   9    -0.266657676778E+02    0.22775E-06   -0.12535E-06 15985   0.576E-03    0.446E-03
RMM:  10    -0.266657676781E+02   -0.29559E-09   -0.19508E-07  9052   0.301E-03
  26 F= -.28194541E+02 E0= -.28194540E+02  d E =-.428478E-03
 curvature:  -4.49 expect dE=-0.221E-03 dE for cont linesearch -0.139E-04
 ZBRENT: extrapolating
 opt :   7.0296  next Energy=   -28.194556 (dE=-0.443E-03)
 bond charge predicted
       N       E                     dE             d eps       ncg     rms          rms(c)
DAV:   1    -0.266653970545E+02    0.37062E-03   -0.11842E-02 17440   0.657E-01    0.762E-02
RMM:   2    -0.266653689193E+02    0.28135E-04   -0.41873E-04 16190   0.137E-01    0.479E-02
RMM:   3    -0.266653409601E+02    0.27959E-04   -0.12080E-04 16007   0.662E-02    0.259E-02
RMM:   4    -0.266653305774E+02    0.10383E-04   -0.36815E-05 17125   0.390E-02    0.150E-02
RMM:   5    -0.266653296995E+02    0.87780E-06   -0.93384E-06 16121   0.192E-02    0.130E-02
RMM:   6    -0.266653299145E+02   -0.21499E-06   -0.22230E-06 16529   0.847E-03    0.102E-02
RMM:   7    -0.266653302543E+02   -0.33975E-06   -0.10204E-06 13462   0.539E-03    0.270E-03
RMM:   8    -0.266653301936E+02    0.60674E-07   -0.44609E-07 11466   0.469E-03
  27 F= -.28194560E+02 E0= -.28194559E+02  d E =-.447106E-03
 curvature:  -4.85 expect dE=-0.307E-03 dE for cont linesearch -0.173E-06
 trial: gam= 0.48664 g(F)=  0.326E-04 g(S)=  0.308E-04 ort = 0.246E-05 (trialstep = 0.326E+01)
 search vector abs. value=  0.106E-03
 bond charge predicted
       N       E                     dE             d eps       ncg     rms          rms(c)
DAV:   1    -0.266678879807E+02   -0.25577E-02   -0.39191E-02 18824   0.186E+00    0.219E-01
RMM:   2    -0.266676519150E+02    0.23607E-03   -0.21190E-03 13949   0.338E-01    0.130E-01
RMM:   3    -0.266674597461E+02    0.19217E-03   -0.85544E-04 16217   0.219E-01    0.508E-02
RMM:   4    -0.266674373672E+02    0.22379E-04   -0.24301E-04 17062   0.102E-01    0.293E-02
RMM:   5    -0.266674376263E+02   -0.25907E-06   -0.51037E-05 15922   0.460E-02    0.258E-02
RMM:   6    -0.266674379399E+02   -0.31358E-06   -0.14402E-05 19504   0.201E-02    0.278E-02
RMM:   7    -0.266674379217E+02    0.18184E-07   -0.12574E-06 14321   0.641E-03    0.302E-02
RMM:   8    -0.266674326332E+02    0.52885E-05   -0.40393E-06 13992   0.113E-02    0.103E-02
RMM:   9    -0.266674295688E+02    0.30643E-05   -0.41523E-06 16460   0.142E-02    0.832E-03
RMM:  10    -0.266674296309E+02   -0.62050E-07   -0.52876E-07 12515   0.421E-03
  28 F= -.28194590E+02 E0= -.28194589E+02  d E =-.303158E-04
 trial-energy change:   -0.000030  1 .order   -0.000037   -0.000210    0.000137
 step:   1.8835(harm=  1.9737)  dis= 0.00162  next Energy=   -28.194619 (dE=-0.596E-04)
 bond charge predicted
       N       E                     dE             d eps       ncg     rms          rms(c)
DAV:   1    -0.266666628592E+02    0.76671E-03   -0.69510E-03 19096   0.781E-01    0.909E-02
RMM:   2    -0.266666207985E+02    0.42061E-04   -0.37425E-04 13934   0.142E-01    0.538E-02
RMM:   3    -0.266665868974E+02    0.33901E-04   -0.14376E-04 16279   0.908E-02    0.219E-02
RMM:   4    -0.266665840726E+02    0.28248E-05   -0.42960E-05 16912   0.434E-02    0.122E-02
RMM:   5    -0.266665853534E+02   -0.12808E-05   -0.10058E-05 16095   0.203E-02    0.108E-02
RMM:   6    -0.266665856442E+02   -0.29074E-06   -0.25063E-06 15774   0.837E-03    0.122E-02
RMM:   7    -0.266665857004E+02   -0.56230E-07   -0.30538E-07  9473   0.431E-03
  29 F= -.28194618E+02 E0= -.28194617E+02  d E =-.580241E-04
 curvature:  -1.61 expect dE=-0.548E-05 dE for cont linesearch -0.252E-06
 trial: gam=-0.00194 g(F)=  0.203E-05 g(S)=  0.136E-05 ort = 0.407E-05 (trialstep = 0.298E+01)
 search vector abs. value=  0.338E-05
 reached required accuracy - stopping structural energy minimisation
Fri Nov  8 20:56:00 EET 2024
